cpubind:list x3005c0s13b1n0 pid 2483384 rank 0 0: mask 0xff
cpubind:list x3005c0s13b1n0 pid 2483385 rank 1 1: mask 0xff00000000
cpubind:list x3005c0s13b1n0 pid 2483386 rank 2 2: mask 0xff00
cpubind:list x3005c0s13b1n0 pid 2483387 rank 3 3: mask 0xff0000000000
cpubind:list x3005c0s13b1n0 pid 2483388 rank 4 4: mask 0xff0000
cpubind:list x3005c0s13b1n0 pid 2483389 rank 5 5: mask 0xff000000000000
cpubind:list x3005c0s13b1n0 pid 2483390 rank 6 6: mask 0xff000000
cpubind:list x3005c0s13b1n0 pid 2483391 rank 7 7: mask 0xff00000000000000
cpubind:list x3005c0s19b1n0 pid 3544593 rank 8 0: mask 0xff
cpubind:list x3005c0s19b1n0 pid 3544594 rank 9 1: mask 0xff00000000
cpubind:list x3005c0s19b1n0 pid 3544595 rank 10 2: mask 0xff00
cpubind:list x3005c0s19b1n0 pid 3544596 rank 11 3: mask 0xff0000000000
cpubind:list x3005c0s19b1n0 pid 3544597 rank 12 4: mask 0xff0000
cpubind:list x3005c0s19b1n0 pid 3544598 rank 13 5: mask 0xff000000000000
cpubind:list x3005c0s19b1n0 pid 3544599 rank 14 6: mask 0xff000000
cpubind:list x3005c0s19b1n0 pid 3544600 rank 15 7: mask 0xff00000000000000
“RANK= 5 LOCAL_RANK= 5 gpu= 1”
“RANK= 3 LOCAL_RANK= 3 gpu= 2”
“RANK= 6 LOCAL_RANK= 6 gpu= 0”
“RANK= 7 LOCAL_RANK= 7 gpu= 0”
“RANK= 0 LOCAL_RANK= 0 gpu= 3”
“RANK= 1 LOCAL_RANK= 1 gpu= 3”
“RANK= 2 LOCAL_RANK= 2 gpu= 2”
“RANK= 4 LOCAL_RANK= 4 gpu= 1”
“RANK= 11 LOCAL_RANK= 3 gpu= 2”
“RANK= 9 LOCAL_RANK= 1 gpu= 3”
“RANK= 8 LOCAL_RANK= 0 gpu= 3”
“RANK= 10 LOCAL_RANK= 2 gpu= 2”
“RANK= 12 LOCAL_RANK= 4 gpu= 1”
“RANK= 13 LOCAL_RANK= 5 gpu= 1”
“RANK= 14 LOCAL_RANK= 6 gpu= 0”
“RANK= 15 LOCAL_RANK= 7 gpu= 0”
DDI running over MPI found environment variable DDI_LOGICAL_NODE_SIZE, so
physical nodes will be partitioned into logical nodes containing 1 core(s).
          *******************************************************
          *                                                     *
          *          GAMESS VERSION = 31 MAR 2024 (R1)          *
          *                                                     *
          *              doi.org/10.1063/5.0005188              *
          *                                                     *
          **************** 64 BIT LINUX VERSION *****************

  GAMESS HAS BEEN MADE POSSIBLE WITH IMPORTANT CONTRIBUTIONS FROM
  THE FOLLOWING INDIVIDUALS (IN ALPHABETICAL ORDER):

     IVANA ADAMOVIC, CHRISTINE AIKENS, TOMOKO AKAMA,
     MELISA ALKAN, YURI ALEXEEV, YURIKO AOKI, POOJA ARORA,
     TOSHIO ASADA, ANDREY ASADCHEV, KIM K. BALDRIDGE,
     PRADIPTA BANDYOPADHYAY, TAYLOR A. BARNES, MARIA BARYSZ,
     ROB BELL, JONATHAN BENTZ, COLLEEN BERTONI,
     JERRY A. BOATZ, BRETT BODE, KURT BRORSEN, KURT R. BRORSEN,
     LAIMUTIS BYTAUTAS, CALEB CARLIN, LAURA CARRINGTON,
     GALINA CHABAN, BENOIT CHAMPAGNE, WEI CHEN, MAHITO CHIBA,
     DAN CHIPMAN, CHEOL HO CHOI, TANNER CULPITT,
     DIPAYAN DATTA, PAUL DAY, ALBERT DEFUSCO,
     NUWAN DESILVA, J. EMILIANO DEUSTUA,
     TIM DUDLEY, MICHEL DUPUIS, STEVEN T. ELBERT,
     DMITRI FEDOROV, KATHERINE FERRERAS, MICHAEL FILATOV,
     ALEX FINDLATER,GRAHAM FLETCHER, MARK FREITAG,
     CHRISTIAN FRIEDL, DAVID GARMER, 
     IGOR S. GERASIMOV, KURT GLAESEMANN,
     MARK S. GORDON, JEFFREY R. GOUR, FENG LONG GU,
     EMILIE B. GUIDEZ, ANASTASIA GUNINA, SHARON HAMMES-SCHIFFER,
     MASATAKE HARUTA, KIMIHIKO HIRAO, YASUHIRO IKABATA,
     TZVETELIN IORDANOV, STEPHAN IRLE, KAZUYA ISHIMURA,
     JOE IVANIC, FRANK JENSEN, JAN H. JENSEN, VISVALDAS KAIRYS,
     MUNEAKI KAMIYA, MICHIO KATOUDA, NAOAKI KAWAKAMI, DAN KEMP,
     BERNARD KIRTMAN, KAZUO KITAURA, MARIUSZ KLOBUKOWSKI,
     MASATO KOBAYASHI, KONSTANTIN KOMAROV, PRAKASHAN KORAMBATH,
     JACEK KORCHOWIEC, SHIRO KOSEKI, KAROL KOWALSKI,
     JIMMY KROMANN, STANISLAW A. KUCHARSKI, HENRY KURTZ,
     SAROM SOK LEANG, SEUNGHOON LEE, HUI LI, SHUHUA LI, WEI LI,
     JESSE J. LUTZ, ALEKSANDR O. LYKHIN,
     ILIAS MAGOULAS, MARCIN MAKOWSKI,
     JOANI MATO, NIKITA MATSUNAGA, BENEDETTA MENNUCCI,
     GRANT MERRILL, NORIYUKI MINEZAWA, VLADIMIR MIRONOV,
     EISAKU MIYOSHI, JOHN A. MONTGOMERY JR., HIROTOSHI MORI,
     JONATHAN MULLIN, MONIKA MUSIAL, SHIGERU NAGASE,
     TAKESHI NAGATA, HIROMI NAKAI, TAKAHITO NAKAJIMA,
     YUYA NAKAJIMA, HARUYUKI NAKANO, HIROYA NAKATA, SEAN NEDD,
     HEATHER NETZLOFF, KIET A. NGUYEN, YOSHIO NISHIMOTO,
     BOSILJKA NJEGIC, RYAN OLSON, MIKE PAK, ROBERTO PEVERATI,
     BUU PHAM, PIOTR PIECUCH, ANNA POMOGAEVA, DAVID POOLE,
     SPENCER PRUITT, OLIVIER QUINET, LUKE ROSKOP,
     KLAUS RUEDENBERG, ANDREW SAND, TOSAPORN SATTASATHUCHANA,
     NOZOMI SAWADA, MICHAEL W. SCHMIDT, PATRICK E. SCHNEIDER,
     JUNJI SEINO, PRACHI SHARMA, JUN SHEN, JIM SHOEMAKER,
     GEORGE SCHOENDORFF, YINAN SHU, DEJUN SI, JONATHAN SKONE,
     LYUDMILA SLIPCHENKO, TONY SMITH, JIE SONG, MARK SPACKMAN,
     CASPER STEINMANN, WALT STEVENS, PEIFENG SU, SHUJUN SU,
     CHET SWALINA, CHINAMI TAKASHIMA, TETSUYA TAKETSUGU,
     ZHEN TAO, NANDUN THELLAMUREGE, ANANTA TIWARI,
     SEIKEN TOKURA, JACOPO TOMASI,
     TSUGUKI TOUMA, TAKAO TSUNEDA, HIROAKI UMEDA,
     JORGE LUIS GALVEZ VALLEJO, YALI WANG, SIMON WEBB,
     AARON WEST, THERESA L. WINDUS, MARTA WLOCH,
     PENG XU, KIYOSHI YAGI, SUSUMU YANAGISAWA, YANG YANG,
     SOOHAENG YOO, TAKESHI YOSHIKAWA, FEDERICO ZAHARIEV,
     TOBY ZENG

  WHO ARE SUPPORTED BY THEIR INSTITUTION/UNIVERSITY/COMPANY/GROUP
  (IN ALPHABETICAL ORDER):

     EP ANALYTICS,
     FACULTES UNIVERSITAIRES NOTRE-DAME DE LA PAIX,
     INSTITUTE FOR MOLECULAR SCIENCE, IOWA STATE UNIVERSITY,
     JACKSON STATE UNIVERSITY, JOHANNES KEPLER UNIVERSITY LINZ,
     KYUNGPOOK NATIONAL UNIVERSITY
     KYUSHU UNIVERSITY, MICHIGAN STATE UNIVERSITY,
     MIE UNIVERSITY, THE MOLECULAR SCIENCES SOFTWARE INSTITUTE,
     MOSCOW STATE UNIVERSITY,
     N. COPERNICUS UNIVERSITY, NAGOYA UNIVERSITY,
     NANJING UNIVERSITY, NAT. INST. OF ADVANCED INDUSTRIAL
     SCIENCE AND TECHNOLOGY, NATIONAL INST. OF STANDARDS AND
     TECHNOLOGY, NESMEYANOV INSTITUTE OF ORGANOELEMENT COMPOUNDS
     OF RUSSIAN ACADEMY OF SCIENCES, OSAKA PREFECTURE UNIVERSITY,
     PENNSYLVANIA STATE UNIVERSITY, TOKYO INSTITUTE OF TECHNOLOGY,
     UNIVERSITY OF AARHUS, UNIVERSITY OF ALBERTA,
     UNIVERSITY OF CALIFORNIA AT SANTA BARBARA,
     UNIVERSITY OF COPENHAGEN, UNIVERSITY OF IOWA,
     UNIVERSITY OF MEMPHIS, UNIVERSITY OF MINNESOTA,
     UNIVERSITY OF NEBRASKA, UNIVERSITY OF NEW ENGLAND,
     UNIVERSITY OF NOTRE DAME, UNIVERSITY OF PISA,
     UNIVERSITY OF SILESIA, UNIVERSITY OF TOKYO,
     UNIVERSITY OF ZURICH, WASEDA UNIVERSITY,
     YALE UNIVERSITY

  GAMESS SOFTWARE MANAGEMENT TEAM FOR THIS RELEASE:
     MARK S. GORDON (TEAM LEAD),
     BRETT BODE (SENIOR ADVISOR),
     GIUSEPPE BARCA,
     COLLEEN BERTONI,
     KRISTOPHER KEIPERT (ADVISOR),
     SAROM S. LEANG (DEVELOPMENT LEAD),
     BUU PHAM,
     JACKSON HAYES (WEBSITE ADMINISTRATOR),
     PENG XU


 PARALLEL VERSION RUNNING ON        8 PROCESSORS IN        8 NODES.

 EXECUTION OF GAMESS BEGUN 11:38:01 16-JUL-2024    

            ECHO OF THE FIRST FEW INPUT CARDS -
 INPUT CARD> $device free=41 $end                                                           
 INPUT CARD> $MP2 code=gpurimp2 $END                                                        
 INPUT CARD> $AUXBAS cabnam=ccd $END                                                        
 INPUT CARD> $offload rhf=.t. makefp=.t. $end                                               
 INPUT CARD>! Change NGROUP to reflect number of nodes you are running on                   
 INPUT CARD> $GDDI NGROUP=8 $END                                                            
 INPUT CARD>! Change 1st and 2nd entry of NGRFMO(1) to reflect number of nodes you          
 INPUT CARD>! are running on                                                                
 INPUT CARD> $SCF DIRSCF=.TRUE. DAMP=.TRUE. SHIFT=.TRUE. NPUNCH=0 $END                      
 INPUT CARD> $SYSTEM MWORDS=3000 MEMDDI=30000 $END                                          
 INPUT CARD> $LOCAL CVGLOC=1.0E-6 FCORE=.TRUE. $END                                         
 INPUT CARD>! Threaded integrals                                                            
 INPUT CARD> $INTGRL INTOMP=1 $END                                                          
 INPUT CARD> $CONTRL SCFTYP=RHF RUNTYP=ENERGY NPRINT=-5                                     
 INPUT CARD>         MPLEVL=2 ISPHER=1                                                      
 INPUT CARD>         LOCAL=RUEDNBRG MAXIT=50 $END                                           
 INPUT CARD> $FMO                                                                           
 INPUT CARD>     NBODY=2                                                                    
 INPUT CARD>     IEFMO=1                                                                    
 INPUT CARD>     RESDIM=1                                                                   
 INPUT CARD>! UNCOMMENT THE LINE BELOW FOR POST-HF RUNS                                     
 INPUT CARD>     RCORSD=1                                                                   
 INPUT CARD>     MODEFM(1)=0, 16, 1, 1, 1                                                   
 INPUT CARD>     RAFO(1)=.1, 1, 1                                                           
 INPUT CARD>     MAXCAO=9                                                                   
 INPUT CARD>     MAXBND=30                                                                  
 INPUT CARD>     NLAYER=1                                                                   
 INPUT CARD>     NFRAG=45                                                                   
 INPUT CARD>     NACUT=90                                                                   
 INPUT CARD> $END                                                                           
 INPUT CARD> $DATA                                                                          
 INPUT CARD> EFMO 6 fragment MSN single pore model                                          
 INPUT CARD> C1                                                                             
 INPUT CARD> O.1-1    8                                                                     
 INPUT CARD>      N31 6                                                                     
 INPUT CARD>                                                                                
 INPUT CARD> C.1-1    6                                                                     
 INPUT CARD>      N31 6                                                                     
 INPUT CARD>                                                                                
 INPUT CARD> Si.1-1  14                                                                     
 INPUT CARD>      N31 6                                                                     
 INPUT CARD>                                                                                
 INPUT CARD> N.1-1    7                                                                     
 INPUT CARD>      N31 6                                                                     
 INPUT CARD>                                                                                
 INPUT CARD> H.1-1    1                                                                     
 INPUT CARD>      N31 6                                                                     
 INPUT CARD>                                                                                
 INPUT CARD> $END                                                                           
 INPUT CARD> $FMOXYZ                                                                        


 -------------------------------------------------------------
 GROUP DDI, PROGRAMMED BY: RYAN M. OLSON AND DMITRI G. FEDOROV
        FEDOROV ET AL., J. COMPUT. CHEM., 25 (2004) 872.
 -------------------------------------------------------------

 ---------------------------------------------------------
 GDDI: INITIALIZATION COMPLETED FOR GROUP      1 OF      8
 WITH        1 PROCESSES BALTYP=DLB   GLOBAL RANK=        0
 ---------------------------------------------------------

   3000000000 WORDS OF MEMORY AVAILABLE


     RUN TITLE
     ---------
  EFMO 6 fragment MSN single pore model                                          

 THE POINT GROUP OF THE MOLECULE IS C1      
 THE ORDER OF THE PRINCIPAL AXIS IS     0

 ATOM   ATOMIC CHARGE
 O.1-1       8.0
 C.1-1       6.0
 SI.1-1     14.0
 N.1-1       7.0
 H.1-1       1.0

     ATOMIC BASIS SET LIBRARY
     ----------------
 THE CONTRACTED PRIMITIVE FUNCTIONS HAVE BEEN UNNORMALIZED
 THE CONTRACTED BASIS FUNCTIONS ARE NOW NORMALIZED TO UNITY

  SHELL TYPE  PRIMITIVE        EXPONENT          CONTRACTION COEFFICIENT(S)

 O.1-1     

      1   S       1          5484.6716600    0.001831074430
      1   S       2           825.2349460    0.013950172200
      1   S       3           188.0469580    0.068445078098
      1   S       4            52.9645000    0.232714335992
      1   S       5            16.8975704    0.470192897984
      1   S       6             5.7996353    0.358520852987

      2   L       7            15.5396162   -0.110777549525    0.070874268231
      2   L       8             3.5999336   -0.148026262701    0.339752839147
      2   L       9             1.0137618    1.130767015354    0.727158577316

      3   L      10             0.2700058    1.000000000000    1.000000000000

 C.1-1     

      4   S      11          3047.5248800    0.001834737132
      4   S      12           457.3695180    0.014037322813
      4   S      13           103.9486850    0.068842622264
      4   S      14            29.2101553    0.232184443216
      4   S      15             9.2866630    0.467941348435
      4   S      16             3.1639270    0.362311985337

      5   L      17             7.8682723   -0.119332419775    0.068999066591
      5   L      18             1.8812885   -0.160854151696    0.316423960957
      5   L      19             0.5442493    1.143456437840    0.744308290898

      6   L      20             0.1687145    1.000000000000    1.000000000000

 SI.1-1    

      7   S      21         16192.1000000    0.001949239405
      7   S      22          2436.0900000    0.014855895466
      7   S      23           556.0010000    0.072568877851
      7   S      24           156.8130000    0.245654925022
      7   S      25            50.1692000    0.486059851646
      7   S      26            17.0300000    0.325719900585

      8   L      27           293.3500000   -0.002829912441    0.004433341604
      8   L      28            70.1173000   -0.036073731114    0.032440211739
      8   L      29            22.4301000   -0.116808100749    0.133719048387
      8   L      30             8.1942500    0.093576880711    0.326780118247
      8   L      31             3.1476800    0.601705518979    0.451139163247
      8   L      32             1.2151500    0.422072364043    0.264105095568

      9   L      33             1.6537000   -0.240599186106   -0.015177406538
      9   L      34             0.5407600    0.073795050368    0.275139118516
      9   L      35             0.2044060    1.040936478740    0.783008337279

     10   L      36             0.0723837    1.000000000000    1.000000000000

 N.1-1     

     11   S      37          4173.5114600    0.001834772160
     11   S      38           627.4579110    0.013994627002
     11   S      39           142.9020930    0.068586551812
     11   S      40            40.2343293    0.232240873040
     11   S      41            12.8202129    0.469069948082
     11   S      42             4.3904370    0.360455199063

     12   L      43            11.6263619   -0.114961181702    0.067579743878
     12   L      44             2.7162798   -0.169117478561    0.323907295893
     12   L      45             0.7722184    1.145851947027    0.740895139755

     13   L      46             0.2120315    1.000000000000    1.000000000000

 H.1-1     

     14   S      47            18.7311370    0.033494604338
     14   S      48             2.8253944    0.234726953484
     14   S      49             0.6401217    0.813757326146

     15   S      50             0.1612778    1.000000000000

 TOTAL NUMBER OF BASIS SET SHELLS             =   15
 NUMBER OF CARTESIAN GAUSSIAN BASIS FUNCTIONS =   42

 SELECTED MURRAY-HANDY-LAMING RADIAL GRID

 LEGACY BECKE'S FUZZY CELL METHOD

 SELECTED ORIGINAL BECKE'S PARTITION FUNCTION

     $CONTRL OPTIONS
     ---------------
 SCFTYP=RHF          RUNTYP=ENERGY       EXETYP=RUN     
 MPLEVL=       2     CITYP =NONE         CCTYP =NONE         VBTYP =NONE    
 DFTTYP=NONE         TDDFT =NONE    
 MULT  =       1     ICHARG=       0     NZVAR =       0     COORD =UNIQUE  
 PP    =NONE         RELWFN=NONE         LOCAL =RUEDNBRG     NUMGRD=       F
 ISPHER=       1     NOSYM =       0     MAXIT =      50     UNITS =ANGS    
 PLTORB=       F     MOLPLT=       F     AIMPAC=       F     FRIEND=        
 NPRINT=      -5     IREST =       0     GEOM  =INPUT   
 NORMF =       0     NORMP =       0     ITOL  =      24     ICUT  =      12
 INTTYP=BEST         GRDTYP=BEST         QMTTOL= 1.0E-06

     $SYSTEM OPTIONS
     ---------------
  REPLICATED MEMORY=  3000000000 WORDS (ON EVERY NODE).
 DISTRIBUTED MEMDDI=       30000 MILLION WORDS IN AGGREGATE,
 MEMDDI DISTRIBUTED OVER   1 PROCESSORS IS  3750000000 WORDS/PROCESSOR.
 TOTAL MEMORY REQUESTED ON EACH PROCESSOR=  6750000000 WORDS.
 TIMLIM=      525600.00 MINUTES, OR     365.0 DAYS.
 PARALL= F  BALTYP=  DLB     KDIAG=    0  COREFL= F
 MXSEQ2=     300 MXSEQ3=     150  mem10=         0  mem22=         0

     High-tech $SYSTEM options in MODIO:       1
        (       1) file flushing:        no 
        (       2) recycle dictionary:   no 
        (       4) skip timing summary:  no 
        (       8) save DFT grid file:   yes
        (      16) reduce output:        no 
        (      32) slaves open F15:      yes
        (      64) in-memory F15:        no 
        (     128) parallelize EVVRSP:   yes
        (     256) reduce timing output: no 
        (     512) use XYZ file:         no 
        (    1024) supershort output:    no 
        (    2048) superfast calculation:no 

          ----------------
          PROPERTIES INPUT
          ----------------

     MOMENTS            FIELD           POTENTIAL          DENSITY
 IEMOM =       1   IEFLD =       0   IEPOT =       0   IEDEN =       0
 WHERE =COMASS     WHERE =NUCLEI     WHERE =NUCLEI     WHERE =NUCLEI  
 OUTPUT=BOTH       OUTPUT=BOTH       OUTPUT=NONE       OUTPUT=BOTH    
 IEMINT=       0   IEFINT=       0                     IEDINT=       0
                                                       MORB  =       0
          EXTRAPOLATION IN EFFECT
          DAMPING IN EFFECT
          LEVEL SHIFTING IN EFFECT
          SOSCF IN EFFECT
 ORBITAL PRINTING OPTION: NPREO=     1 32767     2     1

     ----------------------
     TARGET OFFLOAD OPTIONS
     ----------------------
     RHF    =       T
     CPHF    =       T
     MAKEFP =       T

     -------------------------------
     INTEGRAL TRANSFORMATION OPTIONS
     -------------------------------
     NWORD  =            0
     CUTTRF = 1.0E-10     MPTRAN =       0
     DIRTRF =       T     AOINTS =DUP     

          -----------------------------
          LOCALIZATION INPUT PARAMETERS
          -----------------------------
           LOCAL=RUEDNBRG      NOUTA=       8
          PRTLOC=       F      NOUTB=       0
          MAXLOC=    1000     CVGLOC=1.00E-06
           FCORE=       T     SYMLOC=       F
          MOIDON=       F     EDCOMP=       F
          DIPDCM=       F      NPROT=       0
          QADDCM=       F     DEPRNT=       F
          POLNUM=       F     ORIENT=       F
          POLDYN=       F      VMTOL=1.50E-01
          NPRDTL=       2     IBOYAL=       1
          EXTLOC=NONE         IVVTYP=       0
          PADSVD=       F
          MOOUTA =      1    2    3    4    5    6    7    8

          --------------
          OPENMP OPTIONS
          --------------
 INTOMP  =       1
 SHFOCK  =       F

 THREADED 2-ELECTRON INTEGRAL CODE WILL BE USED
 NUMBER OF OPENMP THREADS:     8

 2E INTS ALGORITHM: MPI(I)  + OPENMP(JK)
 PRIVATE FOCK MATRIX CODE WILL BE USED

          ----------------------
          INTEGRAL INPUT OPTIONS
          ----------------------
 NOPK  =       1 NORDER=       0 SCHWRZ=       T

          -----------------------
          MP2 CONTROL INFORMATION
          -----------------------
          NACORE =        8  NBCORE =        8
          LMOMP2 =        F  AOINTS = DUP     
          METHOD =        2  NWORD  =               0
          MP2PRP =        F  OSPT   = NONE    
          CUTOFF = 1.00E-12  CPHFBS = BASISAO 
          CODE   = GPURIMP2  SCSPT  = NONE    

          NUMBER OF CORE -A-  ORBITALS =     8
          NUMBER OF CORE -B-  ORBITALS =     8
          NUMBER OF OCC. -A-  ORBITALS =    18
          NUMBER OF OCC. -B-  ORBITALS =    18
          NUMBER OF MOLECULAR ORBITALS =    42
          NUMBER OF   BASIS  FUNCTIONS =    42


 ..... DONE SETTING UP THE RUN .....
 STEP CPU TIME =     0.17 TOTAL CPU TIME =          0.2 (      0.0 MIN)
 TOTAL WALL CLOCK TIME=          0.2 SECONDS, CPU UTILIZATION IS   100.00%
 CPU     0: STEP CPU TIME=     0.02 TOTAL CPU TIME=          0.2 (      0.0 MIN)
 TOTAL WALL CLOCK TIME=          0.2 SECONDS, CPU UTILIZATION IS   100.00%

                    ----------------------
                    AO INTEGRAL TECHNOLOGY
                    ----------------------
     S,P,L SHELL ROTATED AXIS INTEGRALS, REPROGRAMMED BY
        KAZUYA ISHIMURA (IMS) AND JOSE SIERRA (SYNSTAR).
     S,P,D,L SHELL ROTATED AXIS INTEGRALS PROGRAMMED BY
        KAZUYA ISHIMURA (INSTITUTE FOR MOLECULAR SCIENCE).
     S,P,D,F,G SHELL TO TOTAL QUARTET ANGULAR MOMENTUM SUM 5,
        ERIC PROGRAM BY GRAHAM FLETCHER (ELORET AND NASA ADVANCED
        SUPERCOMPUTING DIVISION, AMES RESEARCH CENTER).
     S,P,D,F,G,L SHELL GENERAL RYS QUADRATURE PROGRAMMED BY
        MICHEL DUPUIS (PACIFIC NORTHWEST NATIONAL LABORATORY).
 IMODEFD fmoio=                        1
 IMODEFD fmoio=                        1

 FMO/AFO does not work with correlated wave functions.

 STEP CPU TIME =     0.06 TOTAL CPU TIME =          0.3 (      0.0 MIN)
 TOTAL WALL CLOCK TIME=          0.3 SECONDS, CPU UTILIZATION IS   100.00%
 STEP CPU TIME =     0.00 TOTAL CPU TIME =          0.3 (      0.0 MIN)
 TOTAL WALL CLOCK TIME=          0.3 SECONDS, CPU UTILIZATION IS   100.00%
 Initialising fragments
 STEP CPU TIME =     0.02 TOTAL CPU TIME =          0.3 (      0.0 MIN)
 TOTAL WALL CLOCK TIME=          0.3 SECONDS, CPU UTILIZATION IS   100.00%
 STEP CPU TIME =     0.00 TOTAL CPU TIME =          0.3 (      0.0 MIN)
 TOTAL WALL CLOCK TIME=          0.3 SECONDS, CPU UTILIZATION IS   100.00%

 -----------------------------------------------------------------------
                  The Fragment Molecular Orbital (FMO) method.
                         Version 5.5
 Contributors: N. Asada, K. R. Brorsen, M. Chiba, C. Choi, D. G. Fedorov,
 D. S. Kaliakin, N. Minezawa, V. Mironov, T. Nagata, H. Nakata, Y. Nishimoto,
               S. R. Pruitt, C. Steinmann, and F. Zahariev.
       All publications using the FMO method in GAMESS should cite:
          D. G. Fedorov, K. Kitaura, J. Chem. Phys. 120, 6832 (2004).
 -----------------------------------------------------------------------

 Used memory (words):      4109091
 Number of fragments:     45
 Number of layers:         1
 N-body FMO method:        2
 Number of atoms:       4050
 Total charge:             0
 Total spin multiplicity:  1
 Number of basis sets:     1
 Number of LMO types:      0
 Number of boundaries:     0
 MonomerSCF convergence:   0.1000E-06
 Max monomerSCF iter:     30
 MonomerSCF criterion:     internal
 Max AOs per n-mer:      390      780
 Layer electron correlation information
     nbody=  2
    SCFTYP=RHF     
    MPLEVL=  2
    DFTTYP=NONE    
     CITYP=NONE    
     CCTYP=NONE    
     TDDFT=NONE    
 FMO method: EFMO2-RMP2

 FMO approximations.
    Using point charge approximation for the 2e ESP with the VdW factor   2.00
    Using ES-dimer approximation with the VdW factor   1.00
    No dynamic correlation for dimers with the VdW factor    1.00
    No gradient contribution from separated dimers.
    The uniform distances will be used in ESPs.
    Van der Waals radii in Angstrom are:
       R(O  )=  1.4000
       R(H  )=  1.2000

 FMO initial guess options.
    Using monomer density to form n-mer guess.
    Use 1-mer Aufbau for initial n-mer orbitals.

 FMO extensions.
    Point charge screening parameters:    0.6000    0.6000

 FMO automation options.
    Number of atoms per fragment   90

 FMO SCF converger options.
    SCF convergers:
    839    839    839    839    839    839    839    839    839    839
    Fragment densities will be exchanged.

 FMO parallelisation options.
    Smart parallel load balancing: large jobs first.
    ESPs will be shell parallelised.
    Broadcast all fragments at once.
    Do the fragment initialisation in the reverse order.

 FMO properties and print-out level.
    Interfragment CT method:    4
       Compact print-out level.

 Array dimensions maxbnd,maxknd,maxcbs,maxcao,maxbbd,maxnat are:
                      30     10     13      9     13     90

 --------------------------------------------------



 ----------------------------------------------------------------------
 THIS IS AN EFFECTIVE FRAGMENT MOLECULAR ORBITAL (EFMO) RUN.
   USING EFP MODELS FOR MANY-BODY INTERACTIONS.

   ALL PUBLICATIONS USING EFMO SHOULD REFERENCE:
     C. STEINMANN, D.G. FEDOROV, J.H. JENSEN, J. CHEM. PHYS. A 114, 8705 (2010)

     EFMO STORAGE REQUIRES 178642102 WORDS.

     EFP Electrostatic Options
       No screening of electrostaic moments
       Tang-Toennis style screening   0.6000   0.6000
       Ignore torque contribution on gradient
       Multipole expansion on atoms only

     EFP Polarization Options
       Use CPHF alpha-polarizability tensors

     EFP Dispersion Options
       Dispersion interaction for separated pairs

     EFP Charge Transfer Options
       Charge Transfer interaction for separated pairs

     EFP Exchange Repulsion Options
       Exchange Repulsion interaction for separated pairs

 ----------------------------------------------------------------------


 Starting layer 1 nbody=2
 SCFTYP=RHF     MPLEVL=2 DFTTYP=NONE     CITYP=NONE    CCTYP=NONE    TDDFT=NONE    



 Running initial guess for monomer      45

 Running initial guess for monomer      34

 Running initial guess for monomer      30

 Running initial guess for monomer      25

 Running initial guess for monomer      20

 Running initial guess for monomer      13

 Running initial guess for monomer       7

 Running initial guess for monomer       1

 There are         211 separated and     779 SCF (     779 correlated) dimers.
 Estimate of max dimer size:  780 AOs,  300 occ. MOs

 Fragment statistics

      I  NAME     Q NAT0 NGA   NA  NAO  NMO L  MUL SCFTYP      NOP   MOL    CONV
 ===============================================================================
      1 frg00001  0   90   0  150  390  390 1  1 G RHF           0    -1      -1
      2 frg00002  0   90   0  150  390  390 1  1 G RHF           0    -1      -1
      3 frg00003  0   90   0  150  390  390 1  1 G RHF           0    -1      -1
      4 frg00004  0   90   0  150  390  390 1  1 G RHF           0    -1      -1
      5 frg00005  0   90   0  150  390  390 1  1 G RHF           0    -1      -1
      6 frg00006  0   90   0  150  390  390 1  1 G RHF           0    -1      -1
      7 frg00007  0   90   0  150  390  390 1  1 G RHF           0    -1      -1
      8 frg00008  0   90   0  150  390  390 1  1 G RHF           0    -1      -1
      9 frg00009  0   90   0  150  390  390 1  1 G RHF           0    -1      -1
     10 frg00010  0   90   0  150  390  390 1  1 G RHF           0    -1      -1
     11 frg00011  0   90   0  150  390  390 1  1 G RHF           0    -1      -1
     12 frg00012  0   90   0  150  390  390 1  1 G RHF           0    -1      -1
     13 frg00013  0   90   0  150  390  390 1  1 G RHF           0    -1      -1
     14 frg00014  0   90   0  150  390  390 1  1 G RHF           0    -1      -1
     15 frg00015  0   90   0  150  390  390 1  1 G RHF           0    -1      -1
     16 frg00016  0   90   0  150  390  390 1  1 G RHF           0    -1      -1
     17 frg00017  0   90   0  150  390  390 1  1 G RHF           0    -1      -1
     18 frg00018  0   90   0  150  390  390 1  1 G RHF           0    -1      -1
     19 frg00019  0   90   0  150  390  390 1  1 G RHF           0    -1      -1
     20 frg00020  0   90   0  150  390  390 1  1 G RHF           0    -1      -1
     21 frg00021  0   90   0  150  390  390 1  1 G RHF           0    -1      -1
     22 frg00022  0   90   0  150  390  390 1  1 G RHF           0    -1      -1
     23 frg00023  0   90   0  150  390  390 1  1 G RHF           0    -1      -1
     24 frg00024  0   90   0  150  390  390 1  1 G RHF           0    -1      -1
     25 frg00025  0   90   0  150  390  390 1  1 G RHF           0    -1      -1
     26 frg00026  0   90   0  150  390  390 1  1 G RHF           0    -1      -1
     27 frg00027  0   90   0  150  390  390 1  1 G RHF           0    -1      -1
     28 frg00028  0   90   0  150  390  390 1  1 G RHF           0    -1      -1
     29 frg00029  0   90   0  150  390  390 1  1 G RHF           0    -1      -1
     30 frg00030  0   90   0  150  390  390 1  1 G RHF           0    -1      -1
     31 frg00031  0   90   0  150  390  390 1  1 G RHF           0    -1      -1
     32 frg00032  0   90   0  150  390  390 1  1 G RHF           0    -1      -1
     33 frg00033  0   90   0  150  390  390 1  1 G RHF           0    -1      -1
     34 frg00034  0   90   0  150  390  390 1  1 G RHF           0    -1      -1
     35 frg00035  0   90   0  150  390  390 1  1 G RHF           0    -1      -1
     36 frg00036  0   90   0  150  390  390 1  1 G RHF           0    -1      -1
     37 frg00037  0   90   0  150  390  390 1  1 G RHF           0    -1      -1
     38 frg00038  0   90   0  150  390  390 1  1 G RHF           0    -1      -1
     39 frg00039  0   90   0  150  390  390 1  1 G RHF           0    -1      -1
     40 frg00040  0   90   0  150  390  390 1  1 G RHF           0    -1      -1
     41 frg00041  0   90   0  150  390  390 1  1 G RHF           0    -1      -1
     42 frg00042  0   90   0  150  390  390 1  1 G RHF           0    -1      -1
     43 frg00043  0   90   0  150  390  390 1  1 G RHF           0    -1      -1
     44 frg00044  0   90   0  150  390  390 1  1 G RHF           0    -1      -1
     45 frg00045  0   90   0  150  390  390 1  1 G RHF           0    -1      -1

 Close fragment pairs, distance relative to vdW radii

 STEP CPU TIME =     3.18 TOTAL CPU TIME =          3.5 (      0.1 MIN)
 TOTAL WALL CLOCK TIME=          3.5 SECONDS, CPU UTILIZATION IS   100.00%
 dmexch needs                  3672240  words of memory.
 STEP CPU TIME =     0.03 TOTAL CPU TIME =          3.5 (      0.1 MIN)
 TOTAL WALL CLOCK TIME=          3.5 SECONDS, CPU UTILIZATION IS   100.00%

 Data exchange of   3435075 words took     0.0 s.
 STEP CPU TIME =     0.00 TOTAL CPU TIME =          3.5 (      0.1 MIN)
 TOTAL WALL CLOCK TIME=          3.5 SECONDS, CPU UTILIZATION IS   100.00%

 Changing the thresholds:
 CONV= 0.1E-06 0.1E-05 CUTTRF= 0.1E-09 0.1E-08 ITOL= 24 20 ICUT= 12 10

 Acceleration options  T  F  F

 The thresholds are restored.
 STEP CPU TIME =     0.00 TOTAL CPU TIME =          3.5 (      0.1 MIN)
 TOTAL WALL CLOCK TIME=          3.5 SECONDS, CPU UTILIZATION IS   100.00%

 Iteration   1:      0 bond AFO construction took       0.0 seconds.

 AO spaces for     2     0     0 n-mer: L1=   390, L0=   390

 DIRECT SCF CALCULATION, SCHWRZ=T   FDIFF=T,  DIRTHR=  0.00E+00 NITDIR=10

                                                                                                                   NONZERO     BLOCKS
 ITER EX DEM     TOTAL ENERGY        E CHANGE  DENSITY CHANGE     ORB. GRAD      VIR. SHIFT       DAMPING        INTEGRALS    SKIPPED
   1  0  0    -2273.1927058224 -2273.1927058224   0.278894575   0.000000000     0.000000000     1.000000000              0          0
          ---------------START SECOND ORDER SCF---------------
   2  1  0    -2279.1372207863    -5.9445149639   0.071108250   0.056749598     0.000000000     0.000000000              0          0
   3  2  0    -2279.5042194593    -0.3669986730   0.027111985   0.015475389     0.000000000     0.000000000              0          0
   4  3  0    -2279.5393207834    -0.0351013241   0.008714652   0.004377473     0.000000000     0.000000000              0          0
   5  4  0    -2279.5403686370    -0.0010478536   0.003237938   0.002699038     0.000000000     0.000000000              0          0
   6  5  0    -2279.5406273441    -0.0002587071   0.000403718   0.000193170     0.000000000     0.000000000              0          0
   7  6  0    -2279.5406304777    -0.0000031336   0.000125760   0.000051701     0.000000000     0.000000000              0          0
   8  7  0    -2279.5406307519    -0.0000002742   0.000058612   0.000033981     0.000000000     0.000000000              0          0
   9  8  0    -2279.5406307652    -0.0000000133   0.000017924   0.000016014     0.000000000     0.000000000              0          0
  10  9  0    -2279.5406307672    -0.0000000020   0.000001163   0.000000308     0.000000000     0.000000000              0          0
  11 10  0    -2279.5406307672    -0.0000000000   0.000000393   0.000000145     0.000000000     0.000000000              0          0
  12 11  0    -2279.5406307672     0.0000000000   0.000000168   0.000000071     0.000000000     0.000000000              0          0

          -----------------
          DENSITY CONVERGED
          -----------------
     TIME TO FORM FOCK OPERATORS=       1.1 SECONDS (       0.1 SEC/ITER)
     FOCK TIME ON FIRST ITERATION=       0.6, LAST ITERATION=       0.0
     TIME TO SOLVE SCF EQUATIONS=       0.4 SECONDS (       0.0 SEC/ITER)

 FINAL RHF ENERGY IS    -2279.5406307672 AFTER  12 ITERATIONS

 a n-mer:      2      0      0 HOMO=  -12.731126 LUMO=   4.538480 gap=  17.269605
 ...... END OF RHF CALCULATION ......
 STEP CPU TIME =     1.58 TOTAL CPU TIME =          5.1 (      0.1 MIN)
 TOTAL WALL CLOCK TIME=          5.1 SECONDS, CPU UTILIZATION IS   100.00%

     --------------------------------------------------
     GENERATING EFMO PARAMETERS FOR FMO MONOMER #    2
     --------------------------------------------------

          -----------------------------
          LOCALIZATION INPUT PARAMETERS
          -----------------------------
           LOCAL=BOYS          NOUTA=      30
          PRTLOC=       F      NOUTB=       0
          MAXLOC=    1000     CVGLOC=1.00E-06
           FCORE=       T     SYMLOC=       F
          MOIDON=       F     EDCOMP=       F
          DIPDCM=       F      NPROT=       0
          QADDCM=       F     DEPRNT=       F
          POLNUM=       F     ORIENT=       F
          POLDYN=       T      VMTOL=1.50E-01
          NPRDTL=       2     IBOYAL=       1
          EXTLOC=NONE         IVVTYP=       0
          PADSVD=       F
          MOOUTA =      1    2    3    4    5    6    7    8    9   10   11   12
                       13   14   15   16   17   18   19   20   21   22   23   24
                       25   26   27   28   29   30

          -------------------------
          BOYS ORBITAL LOCALIZATION
          -------------------------
          S.F.BOYS, IN "QUANTUM THEORY OF ATOMS, MOLECULES, AND SOLIDS"
          P.O.LOWDIN, ED. ACADEMIC PRESS, NY, 1966 PP253-266.

          THIS LOCALIZATION REQUIRES    461520 WORDS OF MEMORY.
          THIS LOCALIZATION HAS  150 ORBITALS, OF WHICH  30 ARE FROZEN.
 ...... END OF ORBITAL LOCALIZATION ......
 STEP CPU TIME =     0.06 TOTAL CPU TIME =          5.1 (      0.1 MIN)
 TOTAL WALL CLOCK TIME=          5.1 SECONDS, CPU UTILIZATION IS   100.00%
 PRECONDITIONED CONJUGATE GRADIENT SOLVER     CONV. TOLERANCE=5.00E-05
             MAXIMUM          RESPONSES        NONZERO     BLOCKS
 ITER    RESPONSE ERROR        IMPROVED   AO INTEGRALS    SKIPPED
   1       3.54272E-01             3                 0          0
   2       1.69871E-01             3                 0          0
   3       2.74101E-02             3                 0          0
   4       5.13418E-03             3                 0          0
   5       1.30293E-03             3                 0          0
   6       5.45557E-04             3                 0          0
   7       9.27055E-05             3                 0          0
   8       1.95982E-05             3                 0          0
 THE CPHF HAS CONVERGED AFTER  8 ITERATIONS.

           MEAN ALPHA POLARIZABILITY =     0.192347031

           MEAN ALPHA POLARIZABILITY =     0.199936691

           MEAN ALPHA POLARIZABILITY =     0.194924507

           MEAN ALPHA POLARIZABILITY =     0.196059557

           MEAN ALPHA POLARIZABILITY =     0.195380191

           MEAN ALPHA POLARIZABILITY =     0.194844192

           MEAN ALPHA POLARIZABILITY =     0.195248413

           MEAN ALPHA POLARIZABILITY =     0.195460331

           MEAN ALPHA POLARIZABILITY =     0.195339354

           MEAN ALPHA POLARIZABILITY =     0.195363994

           MEAN ALPHA POLARIZABILITY =     0.195531132

           MEAN ALPHA POLARIZABILITY =     0.195429391

           MEAN ALPHA POLARIZABILITY =     0.195319577

           MEAN ALPHA POLARIZABILITY =     0.195260519

           MEAN ALPHA POLARIZABILITY =     0.196336073

           MEAN ALPHA POLARIZABILITY =     0.195523609

           MEAN ALPHA POLARIZABILITY =     0.188374930

           MEAN ALPHA POLARIZABILITY =     0.195288362

           MEAN ALPHA POLARIZABILITY =     0.195377362

           MEAN ALPHA POLARIZABILITY =     0.195463876

           MEAN ALPHA POLARIZABILITY =     0.195394543

           MEAN ALPHA POLARIZABILITY =     0.195779566

           MEAN ALPHA POLARIZABILITY =     0.195089830

           MEAN ALPHA POLARIZABILITY =     0.194753078

           MEAN ALPHA POLARIZABILITY =     0.196374584

           MEAN ALPHA POLARIZABILITY =     0.193176473

           MEAN ALPHA POLARIZABILITY =     0.196356443

           MEAN ALPHA POLARIZABILITY =     0.194813022

           MEAN ALPHA POLARIZABILITY =     0.196112535

           MEAN ALPHA POLARIZABILITY =     0.198271398

           MEAN ALPHA POLARIZABILITY =     0.201234895

           MEAN ALPHA POLARIZABILITY =     0.188896858

           MEAN ALPHA POLARIZABILITY =     0.195013191

           MEAN ALPHA POLARIZABILITY =     0.194271238

           MEAN ALPHA POLARIZABILITY =     0.195456833

           MEAN ALPHA POLARIZABILITY =     0.195503268

           MEAN ALPHA POLARIZABILITY =     0.195629859

           MEAN ALPHA POLARIZABILITY =     0.195483198

           MEAN ALPHA POLARIZABILITY =     0.195038335

           MEAN ALPHA POLARIZABILITY =     0.195649840

           MEAN ALPHA POLARIZABILITY =     0.195632791

           MEAN ALPHA POLARIZABILITY =     0.195698152

           MEAN ALPHA POLARIZABILITY =     0.195668787

           MEAN ALPHA POLARIZABILITY =     0.195516206

           MEAN ALPHA POLARIZABILITY =     0.195000853

           MEAN ALPHA POLARIZABILITY =     0.195537850

           MEAN ALPHA POLARIZABILITY =     0.193878727

           MEAN ALPHA POLARIZABILITY =     0.195553060

           MEAN ALPHA POLARIZABILITY =     0.195592107

           MEAN ALPHA POLARIZABILITY =     0.195461213

           MEAN ALPHA POLARIZABILITY =     0.195538791

           MEAN ALPHA POLARIZABILITY =     0.195039688

           MEAN ALPHA POLARIZABILITY =     0.195244191

           MEAN ALPHA POLARIZABILITY =     0.194059885

           MEAN ALPHA POLARIZABILITY =     0.195369005

           MEAN ALPHA POLARIZABILITY =     0.196912547

           MEAN ALPHA POLARIZABILITY =     0.194196053

           MEAN ALPHA POLARIZABILITY =     0.194756365

           MEAN ALPHA POLARIZABILITY =     0.195017542

           MEAN ALPHA POLARIZABILITY =     0.191726873

           MEAN ALPHA POLARIZABILITY =     0.124971144

           MEAN ALPHA POLARIZABILITY =     0.124509646

           MEAN ALPHA POLARIZABILITY =     0.110831148

           MEAN ALPHA POLARIZABILITY =     0.110808585

           MEAN ALPHA POLARIZABILITY =     0.110806622

           MEAN ALPHA POLARIZABILITY =     0.110981270

           MEAN ALPHA POLARIZABILITY =     0.110937852

           MEAN ALPHA POLARIZABILITY =     0.110974432

           MEAN ALPHA POLARIZABILITY =     0.110178043

           MEAN ALPHA POLARIZABILITY =     0.110738576

           MEAN ALPHA POLARIZABILITY =     0.111002362

           MEAN ALPHA POLARIZABILITY =     0.110982433

           MEAN ALPHA POLARIZABILITY =     0.111084311

           MEAN ALPHA POLARIZABILITY =     0.111012391

           MEAN ALPHA POLARIZABILITY =     0.110947547

           MEAN ALPHA POLARIZABILITY =     0.111011516

           MEAN ALPHA POLARIZABILITY =     0.110612860

           MEAN ALPHA POLARIZABILITY =     0.110932505

           MEAN ALPHA POLARIZABILITY =     0.111032653

           MEAN ALPHA POLARIZABILITY =     0.111024372

           MEAN ALPHA POLARIZABILITY =     0.110940408

           MEAN ALPHA POLARIZABILITY =     0.110896416

           MEAN ALPHA POLARIZABILITY =     0.110807628

           MEAN ALPHA POLARIZABILITY =     0.110137422

           MEAN ALPHA POLARIZABILITY =     0.110060550

           MEAN ALPHA POLARIZABILITY =     0.111282329

           MEAN ALPHA POLARIZABILITY =     0.110898492

           MEAN ALPHA POLARIZABILITY =     0.111271224

           MEAN ALPHA POLARIZABILITY =     0.110925021

           MEAN ALPHA POLARIZABILITY =     0.123834917

           MEAN ALPHA POLARIZABILITY =     0.116413764

           MEAN ALPHA POLARIZABILITY =     0.105575575

           MEAN ALPHA POLARIZABILITY =     0.110739839

           MEAN ALPHA POLARIZABILITY =     0.110633541

           MEAN ALPHA POLARIZABILITY =     0.110848624

           MEAN ALPHA POLARIZABILITY =     0.110742517

           MEAN ALPHA POLARIZABILITY =     0.110966180

           MEAN ALPHA POLARIZABILITY =     0.110977910

           MEAN ALPHA POLARIZABILITY =     0.110987580

           MEAN ALPHA POLARIZABILITY =     0.111010408

           MEAN ALPHA POLARIZABILITY =     0.111011282

           MEAN ALPHA POLARIZABILITY =     0.111070186

           MEAN ALPHA POLARIZABILITY =     0.110964080

           MEAN ALPHA POLARIZABILITY =     0.111001365

           MEAN ALPHA POLARIZABILITY =     0.111573461

           MEAN ALPHA POLARIZABILITY =     0.111045257

           MEAN ALPHA POLARIZABILITY =     0.144844072

           MEAN ALPHA POLARIZABILITY =     0.110991936

           MEAN ALPHA POLARIZABILITY =     0.111099705

           MEAN ALPHA POLARIZABILITY =     0.111029188

           MEAN ALPHA POLARIZABILITY =     0.111001178

           MEAN ALPHA POLARIZABILITY =     0.111029285

           MEAN ALPHA POLARIZABILITY =     0.110737946

           MEAN ALPHA POLARIZABILITY =     0.110553978

           MEAN ALPHA POLARIZABILITY =     0.111564683

           MEAN ALPHA POLARIZABILITY =     0.110747112

           MEAN ALPHA POLARIZABILITY =     0.111937747

           MEAN ALPHA POLARIZABILITY =     0.110325907

           MEAN ALPHA POLARIZABILITY =     0.111124036

           MEAN ALPHA POLARIZABILITY =     0.112139825
 .... DONE WITH STATIC POLARIZABILITY ....
 STEP CPU TIME =     0.26 TOTAL CPU TIME =          5.4 (      0.1 MIN)
 TOTAL WALL CLOCK TIME=          5.4 SECONDS, CPU UTILIZATION IS   100.00%
 PRECONDITIONED CONJUGATE GRADIENT SOLVER     CONV. TOLERANCE=5.00E-05

 COMPUTING DYNAMIC POLARIZABILTY FOR IMAGINARY FREQUENCY   0.0027916I (A.U.)
             MAXIMUM          RESPONSES        NONZERO     BLOCKS
 ITER    RESPONSE ERROR        IMPROVED   AO INTEGRALS    SKIPPED
   1       2.37416E-05             3                 0          0
 THE CPHF HAS CONVERGED AFTER  1 ITERATIONS.
 IT REQUIRED     6 FOCK-LIKE BUILDS TO FIND THE   3 SYMMETRY UNIQUE RESPONSES.

 COMPUTING DYNAMIC POLARIZABILTY FOR IMAGINARY FREQUENCY   0.0151066I (A.U.)
             MAXIMUM          RESPONSES        NONZERO     BLOCKS
 ITER    RESPONSE ERROR        IMPROVED   AO INTEGRALS    SKIPPED
   1       4.68632E-04             3                 0          0
   2       9.48290E-05             3                 0          0
   3       4.11289E-05             3                 0          0
 THE CPHF HAS CONVERGED AFTER  3 ITERATIONS.
 IT REQUIRED    12 FOCK-LIKE BUILDS TO FIND THE   3 SYMMETRY UNIQUE RESPONSES.

 COMPUTING DYNAMIC POLARIZABILTY FOR IMAGINARY FREQUENCY   0.0390017I (A.U.)
             MAXIMUM          RESPONSES        NONZERO     BLOCKS
 ITER    RESPONSE ERROR        IMPROVED   AO INTEGRALS    SKIPPED
   1       2.41026E-03             3                 0          0
   2       5.48276E-04             3                 0          0
   3       2.72449E-04             3                 0          0
   4       1.12693E-04             3                 0          0
   5       4.17063E-05             3                 0          0
 THE CPHF HAS CONVERGED AFTER  5 ITERATIONS.
 IT REQUIRED    24 FOCK-LIKE BUILDS TO FIND THE   3 SYMMETRY UNIQUE RESPONSES.

 COMPUTING DYNAMIC POLARIZABILTY FOR IMAGINARY FREQUENCY   0.0779961I (A.U.)
             MAXIMUM          RESPONSES        NONZERO     BLOCKS
 ITER    RESPONSE ERROR        IMPROVED   AO INTEGRALS    SKIPPED
   1       7.51734E-03             3                 0          0
   2       2.16872E-03             3                 0          0
   3       8.97948E-04             3                 0          0
   4       3.34143E-04             3                 0          0
   5       1.45282E-04             3                 0          0
   6       5.25114E-05             3                 0          0
   7       1.34936E-05             1                 0          0
 THE CPHF HAS CONVERGED AFTER  7 ITERATIONS.
 IT REQUIRED    32 FOCK-LIKE BUILDS TO FIND THE   3 SYMMETRY UNIQUE RESPONSES.

 COMPUTING DYNAMIC POLARIZABILTY FOR IMAGINARY FREQUENCY   0.1386505I (A.U.)
             MAXIMUM          RESPONSES        NONZERO     BLOCKS
 ITER    RESPONSE ERROR        IMPROVED   AO INTEGRALS    SKIPPED
   1       5.30945E-01             3                 0          0
   2       1.29756E-01             3                 0          0
   3       2.97597E-02             3                 0          0
   4       1.26484E-02             3                 0          0
   5       5.60655E-03             3                 0          0
   6       1.92642E-03             3                 0          0
   7       7.20754E-04             3                 0          0
   8       2.35577E-04             3                 0          0
   9       6.90712E-05             3                 0          0
  10       1.68493E-05             3                 0          0
 THE CPHF HAS CONVERGED AFTER 10 ITERATIONS.
 IT REQUIRED    54 FOCK-LIKE BUILDS TO FIND THE   3 SYMMETRY UNIQUE RESPONSES.

 COMPUTING DYNAMIC POLARIZABILTY FOR IMAGINARY FREQUENCY   0.2332227I (A.U.)
             MAXIMUM          RESPONSES        NONZERO     BLOCKS
 ITER    RESPONSE ERROR        IMPROVED   AO INTEGRALS    SKIPPED
   1       5.08027E-01             3                 0          0
   2       1.09955E-01             3                 0          0
   3       2.14110E-02             3                 0          0
   4       8.50392E-03             3                 0          0
   5       3.33551E-03             3                 0          0
   6       1.00501E-03             3                 0          0
   7       3.59685E-04             3                 0          0
   8       1.03726E-04             3                 0          0
   9       2.97316E-05             3                 0          0
 THE CPHF HAS CONVERGED AFTER  9 ITERATIONS.
 IT REQUIRED    48 FOCK-LIKE BUILDS TO FIND THE   3 SYMMETRY UNIQUE RESPONSES.

 COMPUTING DYNAMIC POLARIZABILTY FOR IMAGINARY FREQUENCY   0.3858973I (A.U.)
             MAXIMUM          RESPONSES        NONZERO     BLOCKS
 ITER    RESPONSE ERROR        IMPROVED   AO INTEGRALS    SKIPPED
   1       4.57800E-01             3                 0          0
   2       7.75837E-02             3                 0          0
   3       1.07907E-02             3                 0          0
   4       3.58507E-03             3                 0          0
   5       1.04838E-03             3                 0          0
   6       2.59910E-04             3                 0          0
   7       7.60163E-05             3                 0          0
   8       1.72660E-05             3                 0          0
 THE CPHF HAS CONVERGED AFTER  8 ITERATIONS.
 IT REQUIRED    42 FOCK-LIKE BUILDS TO FIND THE   3 SYMMETRY UNIQUE RESPONSES.

 COMPUTING DYNAMIC POLARIZABILTY FOR IMAGINARY FREQUENCY   0.6491140I (A.U.)
             MAXIMUM          RESPONSES        NONZERO     BLOCKS
 ITER    RESPONSE ERROR        IMPROVED   AO INTEGRALS    SKIPPED
   1       3.68066E-01             3                 0          0
   2       3.86926E-02             3                 0          0
   3       4.51501E-03             3                 0          0
   4       1.15487E-03             3                 0          0
   5       1.80462E-04             3                 0          0
   6       3.68703E-05             3                 0          0
 THE CPHF HAS CONVERGED AFTER  6 ITERATIONS.
 IT REQUIRED    30 FOCK-LIKE BUILDS TO FIND THE   3 SYMMETRY UNIQUE RESPONSES.

 COMPUTING DYNAMIC POLARIZABILTY FOR IMAGINARY FREQUENCY   1.1539038I (A.U.)
             MAXIMUM          RESPONSES        NONZERO     BLOCKS
 ITER    RESPONSE ERROR        IMPROVED   AO INTEGRALS    SKIPPED
   1       2.63030E-01             3                 0          0
   2       2.15736E-02             3                 0          0
   3       1.73328E-03             3                 0          0
   4       3.17378E-04             3                 0          0
   5       4.28320E-05             3                 0          0
 THE CPHF HAS CONVERGED AFTER  5 ITERATIONS.
 IT REQUIRED    24 FOCK-LIKE BUILDS TO FIND THE   3 SYMMETRY UNIQUE RESPONSES.

 COMPUTING DYNAMIC POLARIZABILTY FOR IMAGINARY FREQUENCY   2.3075922I (A.U.)
             MAXIMUM          RESPONSES        NONZERO     BLOCKS
 ITER    RESPONSE ERROR        IMPROVED   AO INTEGRALS    SKIPPED
   1       1.53098E-01             3                 0          0
   2       8.77434E-03             3                 0          0
   3       3.75719E-04             3                 0          0
   4       2.74079E-05             3                 0          0
 THE CPHF HAS CONVERGED AFTER  4 ITERATIONS.
 IT REQUIRED    18 FOCK-LIKE BUILDS TO FIND THE   3 SYMMETRY UNIQUE RESPONSES.

 COMPUTING DYNAMIC POLARIZABILTY FOR IMAGINARY FREQUENCY   5.9576432I (A.U.)
             MAXIMUM          RESPONSES        NONZERO     BLOCKS
 ITER    RESPONSE ERROR        IMPROVED   AO INTEGRALS    SKIPPED
   1       4.33072E-02             3                 0          0
   2       1.22803E-03             3                 0          0
   3       2.61014E-05             3                 0          0
 THE CPHF HAS CONVERGED AFTER  3 ITERATIONS.
 IT REQUIRED    12 FOCK-LIKE BUILDS TO FIND THE   3 SYMMETRY UNIQUE RESPONSES.

 COMPUTING DYNAMIC POLARIZABILTY FOR IMAGINARY FREQUENCY  32.2390801I (A.U.)
             MAXIMUM          RESPONSES        NONZERO     BLOCKS
 ITER    RESPONSE ERROR        IMPROVED   AO INTEGRALS    SKIPPED
   1       1.96812E-02             3                 0          0
   2       5.50564E-05             3                 0          0
   3       6.60698E-07             3                 0          0
 THE CPHF HAS CONVERGED AFTER  3 ITERATIONS.
 IT REQUIRED    12 FOCK-LIKE BUILDS TO FIND THE   3 SYMMETRY UNIQUE RESPONSES.
  DONE FOR DYNAMIC POLARIZABILITY 

 ...... DONE WITH CPHF CONTRIBUTIONS ......
 STEP CPU TIME =     2.72 TOTAL CPU TIME =          8.1 (      0.1 MIN)
 TOTAL WALL CLOCK TIME=          8.1 SECONDS, CPU UTILIZATION IS   100.00%

          ---------------------
          ELECTROSTATIC MOMENTS
          ---------------------

 POINT   1           X           Y           Z (BOHR)    CHARGE
                 0.350506    0.882450   -0.102749        0.00 (A.U.)
         DX          DY          DZ         /D/  (DEBYE)
    -8.051098   -5.869261    5.096175   11.191041


     $DEVICE OPTIONS
     ---------------
 FREE    =         41.00 GB
 FREE    =   44023414784 BYTES

nums AO and AUX basis function            390           2520
   num of S,P,D,F,G AO shells:       150        60         0         0         0
  num of S,P,D,F,G AUX shells:       390       270       180        60         0
 total memory needed:    0.5456686019897461      (GB)
 LL1: 1 mpi rank, B32 is in allocatable node memory
           TIME SUB TOTAL RIMP2_VXX_gpu     0       0.1
  TIME SUB RIMP2_CHOLESKY_DECOMPOSE_VXX     0       0.1
*******************************************************
DEVICE FREE  MEMORY (API):   37.896 GB
DEVICE FREE  MEMORY (INP):   37.896 GB
DEVICE TOTAL MEMORY (API):   39.394 GB
*******************************************************

    TIME SUB TOTAL RIMP2_FORM_MO_I32_gpu    0       2.2
*******************************************************
DEVICE FREE  MEMORY (API):   37.720 GB
DEVICE FREE  MEMORY (INP):   37.720 GB
DEVICE TOTAL MEMORY (API):   39.394 GB
*******************************************************

        DDI_GET time         0         1       120          0.000

 RHF RI MP2 ENERGY
               ESCF=     -2279.5406307672
               E(2)=        -3.8335250361
             E(MP2)=     -2283.3741558033

     TIME SUB TOTAL RIMP2_VDX_I32_cublas    0       0.4
       TIME SUB TOTAL RIMP2_X_ENERGY_gpu    0       3.6
 here   -2283.374155803323     

          ---------------------
          ELECTROSTATIC MOMENTS
          ---------------------

 POINT   1           X           Y           Z (BOHR)    CHARGE
                 0.350506    0.882450   -0.102749        0.00 (A.U.)
         DX          DY          DZ         /D/  (DEBYE)
    -8.051098   -5.869261    5.096175   11.191041

 Iter=  1 iFrag=      2 EFMOc= -2283.374155803 EFMOu= -2279.540630767

 AO spaces for    12     0     0 n-mer: L1=   390, L0=   390

 DIRECT SCF CALCULATION, SCHWRZ=T   FDIFF=T,  DIRTHR=  0.00E+00 NITDIR=10

                                                                                                                   NONZERO     BLOCKS
 ITER EX DEM     TOTAL ENERGY        E CHANGE  DENSITY CHANGE     ORB. GRAD      VIR. SHIFT       DAMPING        INTEGRALS    SKIPPED
   1  0  0    -2273.1834746200 -2273.1834746200   0.269516679   0.000000000     0.000000000     1.000000000              0          0
          ---------------START SECOND ORDER SCF---------------
   2  1  0    -2279.1199391972    -5.9364645772   0.068446771   0.056742700     0.000000000     0.000000000              0          0
   3  2  0    -2279.4874053406    -0.3674661434   0.023686086   0.014055414     0.000000000     0.000000000              0          0
   4  3  0    -2279.5227215544    -0.0353162138   0.004642722   0.002167210     0.000000000     0.000000000              0          0
   5  4  0    -2279.5237480024    -0.0010264481   0.002378664   0.001046611     0.000000000     0.000000000              0          0
   6  5  0    -2279.5239912159    -0.0002432135   0.000366644   0.000232317     0.000000000     0.000000000              0          0
   7  6  0    -2279.5239961207    -0.0000049048   0.000087153   0.000052988     0.000000000     0.000000000              0          0
   8  7  0    -2279.5239963573    -0.0000002366   0.000027592   0.000015390     0.000000000     0.000000000              0          0
   9  8  0    -2279.5239963754    -0.0000000181   0.000004514   0.000002581     0.000000000     0.000000000              0          0
  10  9  0    -2279.5239963758    -0.0000000004   0.000001417   0.000000460     0.000000000     0.000000000              0          0
  11 10  0    -2279.5239963758    -0.0000000000   0.000000354   0.000000302     0.000000000     0.000000000              0          0
  12 11  0    -2279.5239963758    -0.0000000000   0.000000090   0.000000094     0.000000000     0.000000000              0          0

          -----------------
          DENSITY CONVERGED
          -----------------
     TIME TO FORM FOCK OPERATORS=       0.5 SECONDS (       0.0 SEC/ITER)
     FOCK TIME ON FIRST ITERATION=       0.0, LAST ITERATION=       0.0
     TIME TO SOLVE SCF EQUATIONS=       0.4 SECONDS (       0.0 SEC/ITER)

 FINAL RHF ENERGY IS    -2279.5239963758 AFTER  12 ITERATIONS

 a n-mer:     12      0      0 HOMO=  -13.345350 LUMO=   5.112675 gap=  18.458026
 ...... END OF RHF CALCULATION ......
 STEP CPU TIME =     3.77 TOTAL CPU TIME =         11.9 (      0.2 MIN)
 TOTAL WALL CLOCK TIME=         11.9 SECONDS, CPU UTILIZATION IS   100.00%

     --------------------------------------------------
     GENERATING EFMO PARAMETERS FOR FMO MONOMER #   12
     --------------------------------------------------

          -----------------------------
          LOCALIZATION INPUT PARAMETERS
          -----------------------------
           LOCAL=BOYS          NOUTA=      30
          PRTLOC=       F      NOUTB=       0
          MAXLOC=    1000     CVGLOC=1.00E-06
           FCORE=       T     SYMLOC=       F
          MOIDON=       F     EDCOMP=       F
          DIPDCM=       F      NPROT=       0
          QADDCM=       F     DEPRNT=       F
          POLNUM=       F     ORIENT=       F
          POLDYN=       T      VMTOL=1.50E-01
          NPRDTL=       2     IBOYAL=       1
          EXTLOC=NONE         IVVTYP=       0
          PADSVD=       F
          MOOUTA =      1    2    3    4    5    6    7    8    9   10   11   12
                       13   14   15   16   17   18   19   20   21   22   23   24
                       25   26   27   28   29   30

          -------------------------
          BOYS ORBITAL LOCALIZATION
          -------------------------
          S.F.BOYS, IN "QUANTUM THEORY OF ATOMS, MOLECULES, AND SOLIDS"
          P.O.LOWDIN, ED. ACADEMIC PRESS, NY, 1966 PP253-266.

          THIS LOCALIZATION REQUIRES    461520 WORDS OF MEMORY.
          THIS LOCALIZATION HAS  150 ORBITALS, OF WHICH  30 ARE FROZEN.
 ...... END OF ORBITAL LOCALIZATION ......
 STEP CPU TIME =     0.06 TOTAL CPU TIME =         11.9 (      0.2 MIN)
 TOTAL WALL CLOCK TIME=         11.9 SECONDS, CPU UTILIZATION IS   100.00%
 PRECONDITIONED CONJUGATE GRADIENT SOLVER     CONV. TOLERANCE=5.00E-05
             MAXIMUM          RESPONSES        NONZERO     BLOCKS
 ITER    RESPONSE ERROR        IMPROVED   AO INTEGRALS    SKIPPED
   1       3.46387E-01             3                 0          0
   2       1.69511E-01             3                 0          0
   3       2.79669E-02             3                 0          0
   4       5.30861E-03             3                 0          0
   5       1.01466E-03             3                 0          0
   6       1.75369E-04             3                 0          0
   7       6.81556E-05             3                 0          0
   8       1.60526E-05             3                 0          0
 THE CPHF HAS CONVERGED AFTER  8 ITERATIONS.

           MEAN ALPHA POLARIZABILITY =     0.198950408

           MEAN ALPHA POLARIZABILITY =     0.195519400

           MEAN ALPHA POLARIZABILITY =     0.194883980

           MEAN ALPHA POLARIZABILITY =     0.195168453

           MEAN ALPHA POLARIZABILITY =     0.195422604

           MEAN ALPHA POLARIZABILITY =     0.195397071

           MEAN ALPHA POLARIZABILITY =     0.195449363

           MEAN ALPHA POLARIZABILITY =     0.195539626

           MEAN ALPHA POLARIZABILITY =     0.195345684

           MEAN ALPHA POLARIZABILITY =     0.111027068

           MEAN ALPHA POLARIZABILITY =     0.195575576

           MEAN ALPHA POLARIZABILITY =     0.195392804

           MEAN ALPHA POLARIZABILITY =     0.195307760

           MEAN ALPHA POLARIZABILITY =     0.195515538

           MEAN ALPHA POLARIZABILITY =     0.195416944

           MEAN ALPHA POLARIZABILITY =     0.195286410

           MEAN ALPHA POLARIZABILITY =     0.195350140

           MEAN ALPHA POLARIZABILITY =     0.195386876

           MEAN ALPHA POLARIZABILITY =     0.195352635

           MEAN ALPHA POLARIZABILITY =     0.195385123

           MEAN ALPHA POLARIZABILITY =     0.195420635

           MEAN ALPHA POLARIZABILITY =     0.195389053

           MEAN ALPHA POLARIZABILITY =     0.195438408

           MEAN ALPHA POLARIZABILITY =     0.195375927

           MEAN ALPHA POLARIZABILITY =     0.195325573

           MEAN ALPHA POLARIZABILITY =     0.195180065

           MEAN ALPHA POLARIZABILITY =     0.195128625

           MEAN ALPHA POLARIZABILITY =     0.195204211

           MEAN ALPHA POLARIZABILITY =     0.195799924

           MEAN ALPHA POLARIZABILITY =     0.195709734

           MEAN ALPHA POLARIZABILITY =     0.193932650

           MEAN ALPHA POLARIZABILITY =     0.195491214

           MEAN ALPHA POLARIZABILITY =     0.195762893

           MEAN ALPHA POLARIZABILITY =     0.195555910

           MEAN ALPHA POLARIZABILITY =     0.195843069

           MEAN ALPHA POLARIZABILITY =     0.195324170

           MEAN ALPHA POLARIZABILITY =     0.196502317

           MEAN ALPHA POLARIZABILITY =     0.195687333

           MEAN ALPHA POLARIZABILITY =     0.195646018

           MEAN ALPHA POLARIZABILITY =     0.195479100

           MEAN ALPHA POLARIZABILITY =     0.195540114

           MEAN ALPHA POLARIZABILITY =     0.195569605

           MEAN ALPHA POLARIZABILITY =     0.195689506

           MEAN ALPHA POLARIZABILITY =     0.195475492

           MEAN ALPHA POLARIZABILITY =     0.195685445

           MEAN ALPHA POLARIZABILITY =     0.195763551

           MEAN ALPHA POLARIZABILITY =     0.195546924

           MEAN ALPHA POLARIZABILITY =     0.195506868

           MEAN ALPHA POLARIZABILITY =     0.195739956

           MEAN ALPHA POLARIZABILITY =     0.195744990

           MEAN ALPHA POLARIZABILITY =     0.195704645

           MEAN ALPHA POLARIZABILITY =     0.195676849

           MEAN ALPHA POLARIZABILITY =     0.195614038

           MEAN ALPHA POLARIZABILITY =     0.195597956

           MEAN ALPHA POLARIZABILITY =     0.195588577

           MEAN ALPHA POLARIZABILITY =     0.195409607

           MEAN ALPHA POLARIZABILITY =     0.195999278

           MEAN ALPHA POLARIZABILITY =     0.195543085

           MEAN ALPHA POLARIZABILITY =     0.195198499

           MEAN ALPHA POLARIZABILITY =     0.196687998

           MEAN ALPHA POLARIZABILITY =     0.111533907

           MEAN ALPHA POLARIZABILITY =     0.110890815

           MEAN ALPHA POLARIZABILITY =     0.111057568

           MEAN ALPHA POLARIZABILITY =     0.111000477

           MEAN ALPHA POLARIZABILITY =     0.111175615

           MEAN ALPHA POLARIZABILITY =     0.111033745

           MEAN ALPHA POLARIZABILITY =     0.111122050

           MEAN ALPHA POLARIZABILITY =     0.110993480

           MEAN ALPHA POLARIZABILITY =     0.110998673

           MEAN ALPHA POLARIZABILITY =     0.111029896

           MEAN ALPHA POLARIZABILITY =     0.111120231

           MEAN ALPHA POLARIZABILITY =     0.110984609

           MEAN ALPHA POLARIZABILITY =     0.111033250

           MEAN ALPHA POLARIZABILITY =     0.110950932

           MEAN ALPHA POLARIZABILITY =     0.111043233

           MEAN ALPHA POLARIZABILITY =     0.111032310

           MEAN ALPHA POLARIZABILITY =     0.111000455

           MEAN ALPHA POLARIZABILITY =     0.111008089

           MEAN ALPHA POLARIZABILITY =     0.110935168

           MEAN ALPHA POLARIZABILITY =     0.111005100

           MEAN ALPHA POLARIZABILITY =     0.111180720

           MEAN ALPHA POLARIZABILITY =     0.110933319

           MEAN ALPHA POLARIZABILITY =     0.111031330

           MEAN ALPHA POLARIZABILITY =     0.110993603

           MEAN ALPHA POLARIZABILITY =     0.110992814

           MEAN ALPHA POLARIZABILITY =     0.110954159

           MEAN ALPHA POLARIZABILITY =     0.111015107

           MEAN ALPHA POLARIZABILITY =     0.110954797

           MEAN ALPHA POLARIZABILITY =     0.110917973

           MEAN ALPHA POLARIZABILITY =     0.110496831

           MEAN ALPHA POLARIZABILITY =     0.111001321

           MEAN ALPHA POLARIZABILITY =     0.111081188

           MEAN ALPHA POLARIZABILITY =     0.111113767

           MEAN ALPHA POLARIZABILITY =     0.111047495

           MEAN ALPHA POLARIZABILITY =     0.110951776

           MEAN ALPHA POLARIZABILITY =     0.111110945

           MEAN ALPHA POLARIZABILITY =     0.111764374

           MEAN ALPHA POLARIZABILITY =     0.111003938

           MEAN ALPHA POLARIZABILITY =     0.111093148

           MEAN ALPHA POLARIZABILITY =     0.195360437

           MEAN ALPHA POLARIZABILITY =     0.111230835

           MEAN ALPHA POLARIZABILITY =     0.111001425

           MEAN ALPHA POLARIZABILITY =     0.111103602

           MEAN ALPHA POLARIZABILITY =     0.111021544

           MEAN ALPHA POLARIZABILITY =     0.111040382

           MEAN ALPHA POLARIZABILITY =     0.111072686

           MEAN ALPHA POLARIZABILITY =     0.110995622

           MEAN ALPHA POLARIZABILITY =     0.111030740

           MEAN ALPHA POLARIZABILITY =     0.111102517

           MEAN ALPHA POLARIZABILITY =     0.111099815

           MEAN ALPHA POLARIZABILITY =     0.111022631

           MEAN ALPHA POLARIZABILITY =     0.111341726

           MEAN ALPHA POLARIZABILITY =     0.111036594

           MEAN ALPHA POLARIZABILITY =     0.111040554

           MEAN ALPHA POLARIZABILITY =     0.111035774

           MEAN ALPHA POLARIZABILITY =     0.110952710

           MEAN ALPHA POLARIZABILITY =     0.111331742

           MEAN ALPHA POLARIZABILITY =     0.110931854

           MEAN ALPHA POLARIZABILITY =     0.111240299

           MEAN ALPHA POLARIZABILITY =     0.110551634
 .... DONE WITH STATIC POLARIZABILITY ....
 STEP CPU TIME =     0.22 TOTAL CPU TIME =         12.2 (      0.2 MIN)
 TOTAL WALL CLOCK TIME=         12.2 SECONDS, CPU UTILIZATION IS   100.00%
 PRECONDITIONED CONJUGATE GRADIENT SOLVER     CONV. TOLERANCE=5.00E-05

 COMPUTING DYNAMIC POLARIZABILTY FOR IMAGINARY FREQUENCY   0.0027916I (A.U.)
             MAXIMUM          RESPONSES        NONZERO     BLOCKS
 ITER    RESPONSE ERROR        IMPROVED   AO INTEGRALS    SKIPPED
   1       2.20043E-05             3                 0          0
 THE CPHF HAS CONVERGED AFTER  1 ITERATIONS.
 IT REQUIRED     6 FOCK-LIKE BUILDS TO FIND THE   3 SYMMETRY UNIQUE RESPONSES.

 COMPUTING DYNAMIC POLARIZABILTY FOR IMAGINARY FREQUENCY   0.0151066I (A.U.)
             MAXIMUM          RESPONSES        NONZERO     BLOCKS
 ITER    RESPONSE ERROR        IMPROVED   AO INTEGRALS    SKIPPED
   1       4.68241E-04             3                 0          0
   2       9.78034E-05             3                 0          0
   3       4.43364E-05             3                 0          0
 THE CPHF HAS CONVERGED AFTER  3 ITERATIONS.
 IT REQUIRED    12 FOCK-LIKE BUILDS TO FIND THE   3 SYMMETRY UNIQUE RESPONSES.

 COMPUTING DYNAMIC POLARIZABILTY FOR IMAGINARY FREQUENCY   0.0390017I (A.U.)
             MAXIMUM          RESPONSES        NONZERO     BLOCKS
 ITER    RESPONSE ERROR        IMPROVED   AO INTEGRALS    SKIPPED
   1       2.41591E-03             3                 0          0
   2       5.45120E-04             3                 0          0
   3       2.98537E-04             3                 0          0
   4       1.23663E-04             3                 0          0
   5       3.91669E-05             3                 0          0
 THE CPHF HAS CONVERGED AFTER  5 ITERATIONS.
 IT REQUIRED    24 FOCK-LIKE BUILDS TO FIND THE   3 SYMMETRY UNIQUE RESPONSES.

 COMPUTING DYNAMIC POLARIZABILTY FOR IMAGINARY FREQUENCY   0.0779961I (A.U.)
             MAXIMUM          RESPONSES        NONZERO     BLOCKS
 ITER    RESPONSE ERROR        IMPROVED   AO INTEGRALS    SKIPPED
   1       7.54721E-03             3                 0          0
   2       2.02931E-03             3                 0          0
   3       9.88441E-04             3                 0          0
   4       3.58494E-04             3                 0          0
   5       1.36132E-04             3                 0          0
   6       5.12830E-05             3                 0          0
   7       1.26082E-05             1                 0          0
 THE CPHF HAS CONVERGED AFTER  7 ITERATIONS.
 IT REQUIRED    32 FOCK-LIKE BUILDS TO FIND THE   3 SYMMETRY UNIQUE RESPONSES.

 COMPUTING DYNAMIC POLARIZABILTY FOR IMAGINARY FREQUENCY   0.1386505I (A.U.)
             MAXIMUM          RESPONSES        NONZERO     BLOCKS
 ITER    RESPONSE ERROR        IMPROVED   AO INTEGRALS    SKIPPED
   1       5.33589E-01             3                 0          0
   2       1.34196E-01             3                 0          0
   3       2.90606E-02             3                 0          0
   4       1.30342E-02             3                 0          0
   5       6.25365E-03             3                 0          0
   6       2.04908E-03             3                 0          0
   7       7.04935E-04             3                 0          0
   8       2.33086E-04             3                 0          0
   9       6.71237E-05             3                 0          0
  10       1.75334E-05             3                 0          0
 THE CPHF HAS CONVERGED AFTER 10 ITERATIONS.
 IT REQUIRED    54 FOCK-LIKE BUILDS TO FIND THE   3 SYMMETRY UNIQUE RESPONSES.

 COMPUTING DYNAMIC POLARIZABILTY FOR IMAGINARY FREQUENCY   0.2332227I (A.U.)
             MAXIMUM          RESPONSES        NONZERO     BLOCKS
 ITER    RESPONSE ERROR        IMPROVED   AO INTEGRALS    SKIPPED
   1       5.10752E-01             3                 0          0
   2       1.13820E-01             3                 0          0
   3       2.06477E-02             3                 0          0
   4       8.26192E-03             3                 0          0
   5       3.68294E-03             3                 0          0
   6       1.06645E-03             3                 0          0
   7       3.53746E-04             3                 0          0
   8       1.00612E-04             3                 0          0
   9       2.83417E-05             3                 0          0
 THE CPHF HAS CONVERGED AFTER  9 ITERATIONS.
 IT REQUIRED    48 FOCK-LIKE BUILDS TO FIND THE   3 SYMMETRY UNIQUE RESPONSES.

 COMPUTING DYNAMIC POLARIZABILTY FOR IMAGINARY FREQUENCY   0.3858973I (A.U.)
             MAXIMUM          RESPONSES        NONZERO     BLOCKS
 ITER    RESPONSE ERROR        IMPROVED   AO INTEGRALS    SKIPPED
   1       4.60306E-01             3                 0          0
   2       7.77488E-02             3                 0          0
   3       1.07281E-02             3                 0          0
   4       3.45338E-03             3                 0          0
   5       1.09741E-03             3                 0          0
   6       2.71765E-04             3                 0          0
   7       8.23825E-05             3                 0          0
   8       1.62062E-05             3                 0          0
 THE CPHF HAS CONVERGED AFTER  8 ITERATIONS.
 IT REQUIRED    42 FOCK-LIKE BUILDS TO FIND THE   3 SYMMETRY UNIQUE RESPONSES.

 COMPUTING DYNAMIC POLARIZABILTY FOR IMAGINARY FREQUENCY   0.6491140I (A.U.)
             MAXIMUM          RESPONSES        NONZERO     BLOCKS
 ITER    RESPONSE ERROR        IMPROVED   AO INTEGRALS    SKIPPED
   1       3.69968E-01             3                 0          0
   2       3.83386E-02             3                 0          0
   3       4.42214E-03             3                 0          0
   4       1.13476E-03             3                 0          0
   5       1.74816E-04             3                 0          0
   6       3.60828E-05             3                 0          0
 THE CPHF HAS CONVERGED AFTER  6 ITERATIONS.
 IT REQUIRED    30 FOCK-LIKE BUILDS TO FIND THE   3 SYMMETRY UNIQUE RESPONSES.

 COMPUTING DYNAMIC POLARIZABILTY FOR IMAGINARY FREQUENCY   1.1539038I (A.U.)
             MAXIMUM          RESPONSES        NONZERO     BLOCKS
 ITER    RESPONSE ERROR        IMPROVED   AO INTEGRALS    SKIPPED
   1       2.65892E-01             3                 0          0
   2       2.14257E-02             3                 0          0
   3       1.62102E-03             3                 0          0
   4       3.02255E-04             3                 0          0
   5       4.12815E-05             3                 0          0
 THE CPHF HAS CONVERGED AFTER  5 ITERATIONS.
 IT REQUIRED    24 FOCK-LIKE BUILDS TO FIND THE   3 SYMMETRY UNIQUE RESPONSES.

 COMPUTING DYNAMIC POLARIZABILTY FOR IMAGINARY FREQUENCY   2.3075922I (A.U.)
             MAXIMUM          RESPONSES        NONZERO     BLOCKS
 ITER    RESPONSE ERROR        IMPROVED   AO INTEGRALS    SKIPPED
   1       1.56867E-01             3                 0          0
   2       8.85537E-03             3                 0          0
   3       3.68548E-04             3                 0          0
   4       2.69573E-05             3                 0          0
 THE CPHF HAS CONVERGED AFTER  4 ITERATIONS.
 IT REQUIRED    18 FOCK-LIKE BUILDS TO FIND THE   3 SYMMETRY UNIQUE RESPONSES.

 COMPUTING DYNAMIC POLARIZABILTY FOR IMAGINARY FREQUENCY   5.9576432I (A.U.)
             MAXIMUM          RESPONSES        NONZERO     BLOCKS
 ITER    RESPONSE ERROR        IMPROVED   AO INTEGRALS    SKIPPED
   1       4.42334E-02             3                 0          0
   2       1.25036E-03             3                 0          0
   3       2.62926E-05             3                 0          0
 THE CPHF HAS CONVERGED AFTER  3 ITERATIONS.
 IT REQUIRED    12 FOCK-LIKE BUILDS TO FIND THE   3 SYMMETRY UNIQUE RESPONSES.

 COMPUTING DYNAMIC POLARIZABILTY FOR IMAGINARY FREQUENCY  32.2390801I (A.U.)
             MAXIMUM          RESPONSES        NONZERO     BLOCKS
 ITER    RESPONSE ERROR        IMPROVED   AO INTEGRALS    SKIPPED
   1       1.99293E-02             3                 0          0
   2       5.57154E-05             3                 0          0
   3       6.80864E-07             3                 0          0
 THE CPHF HAS CONVERGED AFTER  3 ITERATIONS.
 IT REQUIRED    12 FOCK-LIKE BUILDS TO FIND THE   3 SYMMETRY UNIQUE RESPONSES.
  DONE FOR DYNAMIC POLARIZABILITY 

 ...... DONE WITH CPHF CONTRIBUTIONS ......
 STEP CPU TIME =     2.41 TOTAL CPU TIME =         14.6 (      0.2 MIN)
 TOTAL WALL CLOCK TIME=         14.6 SECONDS, CPU UTILIZATION IS   100.00%

          ---------------------
          ELECTROSTATIC MOMENTS
          ---------------------

 POINT   1           X           Y           Z (BOHR)    CHARGE
                 0.350506    0.882450   -0.102749       -0.00 (A.U.)
         DX          DY          DZ         /D/  (DEBYE)
    -7.234688    6.743147  -17.158282   19.804479


     $DEVICE OPTIONS
     ---------------
 FREE    =         41.00 GB
 FREE    =   44023414784 BYTES

nums AO and AUX basis function            390           2520
   num of S,P,D,F,G AO shells:       150        60         0         0         0
  num of S,P,D,F,G AUX shells:       390       270       180        60         0
 total memory needed:    0.5456686019897461      (GB)
 LL1: 1 mpi rank, B32 is in allocatable node memory
           TIME SUB TOTAL RIMP2_VXX_gpu     0       0.1
  TIME SUB RIMP2_CHOLESKY_DECOMPOSE_VXX     0       0.1
*******************************************************
DEVICE FREE  MEMORY (API):   37.720 GB
DEVICE FREE  MEMORY (INP):   37.720 GB
DEVICE TOTAL MEMORY (API):   39.394 GB
*******************************************************

    TIME SUB TOTAL RIMP2_FORM_MO_I32_gpu    0       1.8
*******************************************************
DEVICE FREE  MEMORY (API):   37.720 GB
DEVICE FREE  MEMORY (INP):   37.720 GB
DEVICE TOTAL MEMORY (API):   39.394 GB
*******************************************************

        DDI_GET time         0         1       120          0.000

 RHF RI MP2 ENERGY
               ESCF=     -2279.5239963758
               E(2)=        -3.8315068205
             E(MP2)=     -2283.3555031963

     TIME SUB TOTAL RIMP2_VDX_I32_cublas    0       0.4
       TIME SUB TOTAL RIMP2_X_ENERGY_gpu    0       2.7
 here   -2283.355503196336     

          ---------------------
          ELECTROSTATIC MOMENTS
          ---------------------

 POINT   1           X           Y           Z (BOHR)    CHARGE
                 0.350506    0.882450   -0.102749       -0.00 (A.U.)
         DX          DY          DZ         /D/  (DEBYE)
    -7.234688    6.743147  -17.158282   19.804479

 Iter=  1 iFrag=     12 EFMOc= -2283.355503196 EFMOu= -2279.523996376

 AO spaces for    20     0     0 n-mer: L1=   390, L0=   390

 DIRECT SCF CALCULATION, SCHWRZ=T   FDIFF=T,  DIRTHR=  0.00E+00 NITDIR=10

                                                                                                                   NONZERO     BLOCKS
 ITER EX DEM     TOTAL ENERGY        E CHANGE  DENSITY CHANGE     ORB. GRAD      VIR. SHIFT       DAMPING        INTEGRALS    SKIPPED
   1  0  0    -2273.1794649527 -2273.1794649527   0.281139715   0.000000000     0.000000000     1.000000000              0          0
          ---------------START SECOND ORDER SCF---------------
   2  1  0    -2279.1179963848    -5.9385314321   0.070438048   0.056747251     0.000000000     0.000000000              0          0
   3  2  0    -2279.4856578683    -0.3676614835   0.025815587   0.014061991     0.000000000     0.000000000              0          0
   4  3  0    -2279.5210123703    -0.0353545021   0.007606709   0.002764161     0.000000000     0.000000000              0          0
   5  4  0    -2279.5220563219    -0.0010439516   0.003068576   0.001722831     0.000000000     0.000000000              0          0
   6  5  0    -2279.5223080200    -0.0002516981   0.000503146   0.000235329     0.000000000     0.000000000              0          0
   7  6  0    -2279.5223118671    -0.0000038471   0.000101153   0.000051257     0.000000000     0.000000000              0          0
   8  7  0    -2279.5223121146    -0.0000002475   0.000034131   0.000013861     0.000000000     0.000000000              0          0
   9  8  0    -2279.5223121283    -0.0000000137   0.000013647   0.000005836     0.000000000     0.000000000              0          0
  10  9  0    -2279.5223121290    -0.0000000007   0.000004365   0.000003072     0.000000000     0.000000000              0          0
  11 10  0    -2279.5223121291    -0.0000000001   0.000000296   0.000000144     0.000000000     0.000000000              0          0
  12 11  0    -2279.5223121291    -0.0000000000   0.000000244   0.000000079     0.000000000     0.000000000              0          0

          ----------------
          ENERGY CONVERGED
          ----------------
     TIME TO FORM FOCK OPERATORS=       0.5 SECONDS (       0.0 SEC/ITER)
     FOCK TIME ON FIRST ITERATION=       0.0, LAST ITERATION=       0.0
     TIME TO SOLVE SCF EQUATIONS=       0.4 SECONDS (       0.0 SEC/ITER)

 FINAL RHF ENERGY IS    -2279.5223121291 AFTER  12 ITERATIONS

 a n-mer:     20      0      0 HOMO=  -12.843678 LUMO=   5.063945 gap=  17.907624
 ...... END OF RHF CALCULATION ......
 STEP CPU TIME =     3.35 TOTAL CPU TIME =         17.9 (      0.3 MIN)
 TOTAL WALL CLOCK TIME=         17.9 SECONDS, CPU UTILIZATION IS   100.00%

     --------------------------------------------------
[...]
   43   27 C1  0   0.92  0.0000  -4566.719683088  -4559.052127976  -0.00051280   0.00100722  0.00013448    0.000   -0.322
   43   28 C1  0   0.85  0.0000  -4566.723067009  -4559.054446658  -0.00678625  -0.00307393  0.00161526    0.000   -4.258
   43   29 C1  0   0.85  0.0000  -4566.728382241  -4559.057810163  -0.01166035  -0.00950938  0.00074953    0.000   -7.317
   43   30 C1  0   0.83  0.0000  -4566.723455874  -4559.055648249   0.00263842   0.00372047  0.00117606    0.000    1.656
   43   31 C1  0   0.85  0.0000  -4566.689932024  -4559.020399511  -0.00875838  -0.00607215  0.00134165    0.000   -5.496
   43   32 C1  0   0.80  0.0000  -4566.698701877  -4559.029714290   0.02852989   0.03075781  0.00091568    0.000   17.903
   43   33 C1  0   0.91  0.0000  -4566.679796729  -4559.009601569   0.00293140   0.00614528  0.00023523    0.000    1.839
   43   34 C1  0   0.85  0.0000  -4566.724027680  -4559.055573854  -0.00783128  -0.00429042  0.00053353    0.000   -4.914
   43   35 C1  0   0.79  0.0000  -4566.656961128  -4558.988600489   0.02520727   0.02640085  0.00153564    0.000   15.818
   43   36 C1  0   0.79  0.0000  -4566.669041113  -4558.998423651   0.04690754   0.05261137  0.00402724    0.000   29.435
   43   37 C1  0   0.90  0.0000  -4566.725514061  -4559.057806833  -0.01111392  -0.00951642  0.00029503    0.000   -6.974
   43   38 S1  0   1.44  0.0000  -4559.057365311  -4559.057202911  -0.00071504  -0.00055264  0.00000000    0.000   -0.449
   43   39 C1  0   0.83  0.0000  -4566.702020766  -4559.032481683   0.02147778   0.02439157  0.00119237    0.000   13.478
   43   40 C1  0   0.79  0.0000  -4566.700099174  -4559.029420398   0.01685348   0.02262359  0.00285462    0.000   10.576
   43   41 C1  0   0.90  0.0000  -4566.705148853  -4559.038794516   0.00836949   0.00964432  0.00059546    0.000    5.252
   43   42 C1  0   0.88  0.0000  -4566.696724425  -4559.029495909   0.02061091   0.02300223  0.00140196    0.000   12.934
   44    1 C1  0   0.92  0.0000  -4566.701794854  -4559.031240229   0.00363485   0.00557105  0.00043581    0.000    2.281
   44    2 C1  0   0.92  0.0000  -4566.722409379  -4559.050641355   0.00176407   0.00431188  0.00040313    0.000    1.107
   44    3 C1  0   0.91  0.0000  -4566.696182751  -4559.025056906   0.00408058   0.00557867  0.00037870    0.000    2.561
   44    4 S1  0   1.58  0.0000  -4559.040416631  -4559.040277515   0.00001860   0.00015771  0.00000000    0.000    0.012
   44    5 C1  0   0.91  0.0000  -4566.722649183  -4559.048738702  -0.00262874   0.00078119  0.00052599    0.000   -1.650
   44    6 C1  0   0.85  0.0000  -4566.710975414  -4559.039864831   0.00220801   0.00522474  0.00075036    0.000    1.386
   44    7 C1  0   0.96  0.0000  -4566.704692481  -4559.036843744   0.00298567   0.00380819  0.00016737    0.000    1.874
   44    8 C1  0   0.86  0.0000  -4566.717852038  -4559.046852009  -0.00595416  -0.00297191  0.00094292    0.000   -3.736
   44    9 C1  0   0.79  0.0000  -4566.651174130  -4558.981373293   0.05625380   0.05901998  0.00235400    0.000   35.300
   44   10 C1  0   0.82  0.0000  -4566.700049651  -4559.029847380   0.01100180   0.01184935  0.00093533    0.000    6.904
   44   11 C1  0   0.93  0.0000  -4566.709954548  -4559.039554023   0.00172805   0.00311580  0.00030921    0.000    1.084
   44   12 C1  0   0.85  0.0000  -4566.720305304  -4559.050450107  -0.01478446  -0.01213127  0.00120878    0.000   -9.277
   44   13 S1  0   1.39  0.0000  -4559.042240913  -4559.042125038   0.00130754   0.00142341  0.00000000    0.000    0.820
   44   14 C1  0   0.84  0.0000  -4566.709849952  -4559.042131704  -0.00306273  -0.00243005  0.00066162    0.000   -1.922
   44   15 C1  0   0.95  0.0000  -4566.687784480  -4559.016386037  -0.00042340   0.00120377  0.00024337    0.000   -0.266
   44   16 C1  0   0.92  0.0000  -4566.708128836  -4559.039559555  -0.00244386  -0.00106862  0.00021623    0.000   -1.534
   44   17 C1  0   0.91  0.0000  -4566.717659277  -4559.048695262  -0.01260196  -0.01108624  0.00040282    0.000   -7.908
   44   18 S1  0   1.20  0.0000  -4559.036860718  -4559.036571863   0.00046969   0.00075855  0.00000000    0.000    0.295
   44   19 S1  0   1.54  0.0000  -4559.036869086  -4559.036736508   0.00370273   0.00383530  0.00000000    0.000    2.323
   44   20 C1  0   0.98  0.0000  -4566.704660343  -4559.034658103   0.00022568   0.00197649  0.00044212    0.000    0.142
   44   21 C1  0   0.85  0.0000  -4566.705621110  -4559.035897233   0.00217557   0.00482029  0.00110601    0.000    1.365
   44   22 C1  0   0.85  0.0000  -4566.717706798  -4559.045891106   0.00492844   0.00784538  0.00068517    0.000    3.093
   44   23 C1  0   0.81  0.0000  -4566.690759336  -4559.018542108   0.01775885   0.02253944  0.00146597    0.000   11.144
   44   24 C1  0   0.85  0.0000  -4566.715078581  -4559.042543088  -0.00129573   0.00071465  0.00066495    0.000   -0.813
   44   25 C1  0   0.85  0.0000  -4566.710618277  -4559.041610088  -0.00441290  -0.00253868  0.00060421    0.000   -2.769
   44   26 C1  0   0.78  0.0000  -4566.632133125  -4558.956150688   0.07782638   0.08498898  0.00438215    0.000   48.837
   44   27 C1  0   0.84  0.0000  -4566.689744094  -4559.017467780   0.02060307   0.02469601  0.00210056    0.000   12.929
   44   28 C1  0   0.92  0.0000  -4566.708065813  -4559.037233403  -0.00060818   0.00316792  0.00079811    0.000   -0.382
   44   29 S1  0   1.49  0.0000  -4559.041960444  -4559.041777761  -0.00463106  -0.00444838  0.00000000    0.000   -2.906
   44   30 C1  0   0.85  0.0000  -4566.732526796  -4559.059735458  -0.01525562  -0.01133814  0.00141986    0.000   -9.573
   44   31 C1  0   0.85  0.0000  -4566.678753082  -4559.007426114  -0.00640256  -0.00407015  0.00063465    0.000   -4.018
   44   32 C1  0   0.85  0.0000  -4566.721651189  -4559.050420225  -0.00324254  -0.00091952  0.00148361    0.000   -2.035
   44   33 C1  0   0.85  0.0000  -4566.646429529  -4558.975885827   0.02747547   0.02888962  0.00110134    0.000   17.241
   44   34 C1  0   0.85  0.0000  -4566.721122755  -4559.052662978  -0.01374947  -0.01235094  0.00105883    0.000   -8.628
   44   35 S1  0   1.49  0.0000  -4559.008405526  -4559.008282510  -0.00437559  -0.00425257  0.00000000    0.000   -2.746
   44   36 C1  0   0.78  0.0000  -4566.674961370  -4559.004463445   0.03216416   0.03560017  0.00206283    0.000   20.183
   44   37 C1  0   0.85  0.0000  -4566.726080753  -4559.054335537  -0.02050373  -0.01701653  0.00168513    0.000  -12.866
   44   38 C1  0   0.79  0.0000  -4566.696508442  -4559.023865435   0.01845200   0.02181344  0.00239376    0.000   11.579
   44   39 C1  0   0.81  0.0000  -4566.703388170  -4559.029969515   0.01128725   0.01593234  0.00210235    0.000    7.083
   44   40 C1  0   0.85  0.0000  -4566.719846140  -4559.049204552  -0.01171661  -0.00813196  0.00090822    0.000   -7.352
   44   41 C1  0   0.85  0.0000  -4566.696310563  -4559.027260673   0.00838466   0.01020677  0.00061511    0.000    5.261
   44   42 C1  0   0.95  0.0000  -4566.713737537  -4559.045056565  -0.00522532  -0.00352982  0.00067360    0.000   -3.279
   44   43 C1  0   0.94  0.0000  -4566.707560287  -4559.036806637   0.00129813   0.00280969  0.00027015    0.000    0.815
   45    1 C1  0   0.92  0.0000  -4566.725972656  -4559.060218083  -0.01100013  -0.01034978  0.00036764    0.000   -6.903
   45    2 C1  0   0.85  0.0000  -4566.723328336  -4559.055101295   0.01038794   0.01290896  0.00074437    0.000    6.519
   45    3 C1  0   0.79  0.0000  -4566.673337637  -4559.004370918   0.03646852   0.03932168  0.00176853    0.000   22.884
   45    4 C1  0   0.85  0.0000  -4566.738988878  -4559.068388191  -0.01806956  -0.01489594  0.00085036    0.000  -11.339
   45    5 C1  0   0.92  0.0000  -4566.743642383  -4559.073489298  -0.01407912  -0.01091238  0.00051231    0.000   -8.835
   45    6 S1  0   1.47  0.0000  -4559.059340074  -4559.059244951  -0.00119348  -0.00109836  0.00000000    0.000   -0.749
   45    7 S1  0   2.04  0.0000  -4559.055661807  -4559.055616173  -0.00195285  -0.00190721  0.00000000    0.000   -1.225
   45    8 C1  0   0.92  0.0000  -4566.735305413  -4559.068916992  -0.01386471  -0.01197987  0.00100420    0.000   -8.700
   45    9 C1  0   0.82  0.0000  -4566.674376416  -4559.008500296   0.04259433   0.04495000  0.00138382    0.000   26.728
   45   10 C1  0   0.92  0.0000  -4566.722318813  -4559.055377700  -0.00172454  -0.00062394  0.00023892    0.000   -1.082
   45   11 C1  0   0.85  0.0000  -4566.734455109  -4559.066671811  -0.01322969  -0.01094496  0.00145773    0.000   -8.302
   45   12 C1  0   0.92  0.0000  -4566.719572874  -4559.054418402  -0.00450921  -0.00304254  0.00009015    0.000   -2.830
   45   13 C1  0   0.85  0.0000  -4566.729119770  -4559.064200129  -0.00886449  -0.00759466  0.00072151    0.000   -5.563
   45   14 C1  0   0.85  0.0000  -4566.725764683  -4559.059332669  -0.00943464  -0.00657399  0.00060705    0.000   -5.920
   45   15 C1  0   0.85  0.0000  -4566.701014965  -4559.031975863  -0.00411106  -0.00132903  0.00165171    0.000   -2.580
   45   16 S1  0   1.51  0.0000  -4559.051129724  -4559.050990295   0.00041823   0.00055766  0.00000000    0.000    0.262
   45   17 S1  0   1.14  0.0000  -4559.058207539  -4559.058052552  -0.00754149  -0.00738650  0.00000000    0.000   -4.732
   45   18 C1  0   0.94  0.0000  -4566.717069003  -4559.052439664  -0.00285801  -0.00205223  0.00033339    0.000   -1.793
   45   19 C1  0   0.79  0.0000  -4566.693710388  -4559.024191569   0.02357555   0.02943727  0.00190971    0.000   14.794
   45   20 C1  0   0.85  0.0000  -4566.714606426  -4559.045273628  -0.00017758   0.00441799  0.00104715    0.000   -0.111
   45   21 C1  0   0.85  0.0000  -4566.719351105  -4559.050078089  -0.00201160   0.00369646  0.00149348    0.000   -1.262
   45   22 C1  0   0.92  0.0000  -4566.732394282  -4559.064946921  -0.00021622   0.00184659  0.00076320    0.000   -0.136
   45   23 C1  0   0.88  0.0000  -4566.729532363  -4559.064767217  -0.01147136  -0.01062864  0.00057719    0.000   -7.198
   45   24 C1  0   0.92  0.0000  -4566.719407544  -4559.050292629   0.00391813   0.00602213  0.00032641    0.000    2.459
   45   25 C1  0   0.79  0.0000  -4566.693827933  -4559.028733038   0.02192026   0.02339539  0.00122239    0.000   13.755
   45   26 C1  0   0.85  0.0000  -4566.729986179  -4559.063759442  -0.01048385  -0.00956275  0.00090258    0.000   -6.579
   45   27 C1  0   0.90  0.0000  -4566.728411550  -4559.061611850  -0.00852157  -0.00639103  0.00127034    0.000   -5.347
   45   28 C1  0   0.85  0.0000  -4566.728937585  -4559.060913001  -0.01193713  -0.00745465  0.00130498    0.000   -7.491
   45   29 C1  0   0.93  0.0000  -4566.714183780  -4559.045069573   0.00325781   0.00531684  0.00068427    0.000    2.044
   45   30 S1  0   1.15  0.0000  -4559.067745258  -4559.067444369  -0.00629092  -0.00599003  0.00000000    0.000   -3.948
   45   31 C1  0   0.80  0.0000  -4566.658299384  -4558.991234630   0.02359396   0.02517836  0.00170444    0.000   14.805
   45   32 C1  0   0.89  0.0000  -4566.727565777  -4559.057741232   0.00038569   0.00481649  0.00066384    0.000    0.242
   45   33 C1  0   0.92  0.0000  -4566.695031161  -4559.028970796  -0.01158334  -0.01113833  0.00038420    0.000   -7.269
   45   34 C1  0   0.79  0.0000  -4566.691442057  -4559.026083255   0.02547405   0.02728580  0.00148195    0.000   15.985
   45   35 S1  0   1.41  0.0000  -4559.021975965  -4559.021826237  -0.00488900  -0.00473927  0.00000000    0.000   -3.068
   45   36 C1  0   0.79  0.0000  -4566.685982306  -4559.020544111   0.03068605   0.03257653  0.00155075    0.000   19.256
   45   37 C1  0   0.85  0.0000  -4566.726919627  -4559.059217157  -0.01179979  -0.00884112  0.00109308    0.000   -7.404
   45   38 C1  0   0.85  0.0000  -4566.737809510  -4559.069635350  -0.01330624  -0.01089945  0.00078066    0.000   -8.350
   45   39 S1  0   1.67  0.0000  -4559.057096421  -4559.057038069   0.00186246   0.00192081  0.00000000    0.000    1.169
   45   40 S1  0   1.14  0.0000  -4559.054560962  -4559.054367866  -0.00043135  -0.00023825  0.00000000    0.000   -0.271
   45   41 C1  0   0.85  0.0000  -4566.722437703  -4559.055235284  -0.00819966  -0.00471082  0.00065785    0.000   -5.145
   45   42 C1  0   0.85  0.0000  -4566.706920290  -4559.040952135   0.01113475   0.01363163  0.00078314    0.000    6.987
   45   43 C1  0   0.85  0.0000  -4566.722712051  -4559.054883872  -0.00431081  -0.00221052  0.00134144    0.000   -2.705
   45   44 C1  0   0.92  0.0000  -4566.712095580  -4559.041166885  -0.00251746   0.00053507  0.00040469    0.000   -1.580

 Total energy of the molecule: Ecorr  (2)=  -102748.007154040

 Total energy of the molecule: Etotpol(2)=       -0.881336034

 Total energy of the molecule: Euncorr(2)=  -102573.391767571

 Total energy of the molecule: Edelta (2)=     -174.615386470
 Dipole moment D(xyz),DA(2)=  103.1770623   11.0597424   48.2666627  114.4442869

                ONE ELECTRON ENERGY =     -3096303.7089749165
                TWO ELECTRON ENERGY =      1115868.8354661143
           NUCLEAR REPULSION ENERGY =      1877686.8663547616
                                      -----------------------
                       TOTAL ENERGY =      -102748.0071540405

 ELECTRON-ELECTRON POTENTIAL ENERGY =      1115868.8354661143
  NUCLEUS-ELECTRON POTENTIAL ENERGY =     -3198940.6729617356
   NUCLEUS-NUCLEUS POTENTIAL ENERGY =      1877686.8663547616
                                      -----------------------
             TOTAL POTENTIAL ENERGY =      -205384.9711408596
               TOTAL KINETIC ENERGY =       102636.9639868193
                 VIRIAL RATIO (V/T) =            2.0010819023

 The best FMO energy is         -102748.007154040

 Done with FMO properties.
 STEP CPU TIME =     0.00 TOTAL CPU TIME =       2800.1 (     46.7 MIN)
 TOTAL WALL CLOCK TIME=       2800.1 SECONDS, CPU UTILIZATION IS   100.00%
 STEP CPU TIME =     0.00 TOTAL CPU TIME =       2800.1 (     46.7 MIN)
 TOTAL WALL CLOCK TIME=       2800.1 SECONDS, CPU UTILIZATION IS   100.00%
 Tim: ini  0.08 mon   41.65 dim 2758.18 trim    0.00 prp    0.00 total  2799.91

 Total timing statistics in pairs (CPU,wall) for each rank, sec

    Rank   total     SCF    corr     DFT    CPHF     EFP    solv     ESP    geom
 -------------------------------------------------------------------------------
       1    2800.1    595.1   2134.9      0.0    0.0   0.0    0.0     0.0    0.0
       1    2800.1    595.1   2134.9      0.0    0.0   0.0    0.0     0.0    0.0
       2    2800.1    612.6   2108.0      0.0    0.0   0.0    0.0     0.0    0.0
       2    2800.1    612.6   2108.0      0.0    0.0   0.0    0.0     0.0    0.0
       3    2800.1    602.0   2133.8      0.0    0.0   0.0    0.0     0.0    0.0
       3    2800.1    602.0   2133.8      0.0    0.0   0.0    0.0     0.0    0.0
       4    2800.1    609.1   2112.2      0.0    0.0   0.0    0.0     0.0    0.0
       4    2800.1    609.1   2112.2      0.0    0.0   0.0    0.0     0.0    0.0
       5    2800.1    612.3   2122.2      0.0    0.0   0.0    0.0     0.0    0.0
       5    2800.1    612.3   2122.2      0.0    0.0   0.0    0.0     0.0    0.0
       6    2800.1    601.4   2119.7      0.0    0.0   0.0    0.0     0.0    0.0
       6    2800.1    601.4   2119.7      0.0    0.0   0.0    0.0     0.0    0.0
       7    2800.1    596.0   2136.5      0.0    0.0   0.0    0.0     0.0    0.0
       7    2800.1    596.0   2136.5      0.0    0.0   0.0    0.0     0.0    0.0
       8    2800.1    600.6   2113.4      0.0    0.0   0.0    0.0     0.0    0.0
       8    2800.1    600.6   2113.4      0.0    0.0   0.0    0.0     0.0    0.0
averaged    2800.1    603.6   2122.6      0.0    0.0   0.0    0.0     0.0    0.0
averaged    2800.1    603.6   2122.6      0.0    0.0   0.0    0.0     0.0    0.0

  FMO  timing statistics in pairs (CPU,wall) for each rank, sec

    Rank  FMOini FMOscf1  FMOdm1 FMOsyn1 FMOscf2  FMOes2 FMOsyn2 FMOscf3 FMOsyn3
 -------------------------------------------------------------------------------
       1   3.3      37.6   0.1    0.8    2755.7      0.0    1.2       0.0    0.0
       1   3.3      37.6   0.1    0.8    2755.7      0.0    1.2       0.0    0.0
       2   3.3      32.4   0.1    5.9    2754.6      0.0    2.2       0.0    0.0
       2   3.3      32.4   0.1    5.9    2754.6      0.0    2.2       0.0    0.0
       3   3.3      38.4   0.1    0.0    2754.4      0.0    2.5       0.0    0.0
       3   3.3      38.4   0.1    0.0    2754.4      0.0    2.5       0.0    0.0
       4   3.3      34.1   0.1    4.3    2754.3      0.0    2.6       0.0    0.0
       4   3.3      34.1   0.1    4.3    2754.3      0.0    2.6       0.0    0.0
       5   3.3      32.7   0.1    5.7    2756.1      0.0    0.7       0.0    0.0
       5   3.3      32.7   0.1    5.7    2756.1      0.0    0.7       0.0    0.0
       6   3.3      38.3   0.1    0.0    2755.0      0.0    1.8       0.0    0.0
       6   3.3      38.3   0.1    0.0    2755.0      0.0    1.8       0.0    0.0
       7   3.3      38.0   0.1    0.3    2754.0      0.0    2.9       0.0    0.0
       7   3.3      38.0   0.1    0.3    2754.0      0.0    2.9       0.0    0.0
       8   3.3      38.1   0.1    0.3    2756.8      0.0    0.0       0.0    0.0
       8   3.3      38.1   0.1    0.3    2756.8      0.0    0.0       0.0    0.0
averaged   3.3      36.2   0.1    2.2    2755.1      0.0    1.7       0.0    0.0
averaged   3.3      36.2   0.1    2.2    2755.1      0.0    1.7       0.0    0.0
                188426489  WORDS OF DYNAMIC MEMORY USED
 EXECUTION OF GAMESS TERMINATED NORMALLY 12:24:41 16-JUL-2024    

          This is a threaded run. In some cases not all
          threaded components in GAMESS will saturate the
          total number of available threads on your system or
          set by OMP_NUM_THREADS

 DDI: 263640 bytes (0.3 MB / 0 MWords) used by master data server.

 ----------------------------------------
 CPU timing information for all processes
 ========================================
 0: 10689.48 + 1939.781 = 12628.829
 1: 10686.556 + 1963.214 = 12649.770
 2: 10707.447 + 1988.608 = 12696.55
 3: 10731.112 + 1968.119 = 12699.231
 4: 10774.389 + 1966.957 = 12741.346
 5: 10678.164 + 1966.621 = 12644.785
 6: 10686.500 + 1976.684 = 12663.184
 7: 10671.105 + 1955.663 = 12626.768
 8: 633.915 + 2174.536 = 2808.451
 9: 635.633 + 2173.130 = 2808.764
 10: 638.864 + 2168.928 = 2807.793
 11: 631.722 + 2175.648 = 2807.371
 12: 621.69 + 2179.743 = 2800.812
 13: 614.106 + 2187.472 = 2801.578
 14: 611.967 + 2189.123 = 2801.90
 15: 621.598 + 2181.822 = 2803.420
 ----------------------------------------
Warning: ieee_invalid is signaling
Warning: ieee_divide_by_zero is signaling
Warning: ieee_underflow is signaling
Warning: ieee_inexact is signaling
FORTRAN STOP
Warning: ieee_invalid is signaling
Warning: ieee_divide_by_zero is signaling
Warning: ieee_underflow is signaling
Warning: ieee_inexact is signaling
FORTRAN STOP
Warning: ieee_invalid is signaling
Warning: ieee_divide_by_zero is signaling
Warning: ieee_underflow is signaling
Warning: ieee_inexact is signaling
FORTRAN STOP
Warning: ieee_invalid is signaling
Warning: ieee_divide_by_zero is signaling
Warning: ieee_underflow is signaling
Warning: ieee_inexact is signaling
FORTRAN STOP
Warning: ieee_invalid is signaling
Warning: ieee_divide_by_zero is signaling
Warning: ieee_underflow is signaling
Warning: ieee_inexact is signaling
FORTRAN STOP
Warning: ieee_invalid is signaling
Warning: ieee_divide_by_zero is signaling
Warning: ieee_underflow is signaling
Warning: ieee_inexact is signaling
FORTRAN STOP
Warning: ieee_invalid is signaling
Warning: ieee_divide_by_zero is signaling
Warning: ieee_underflow is signaling
Warning: ieee_inexact is signaling
FORTRAN STOP
Warning: ieee_invalid is signaling
Warning: ieee_divide_by_zero is signaling
Warning: ieee_underflow is signaling
Warning: ieee_inexact is signaling
FORTRAN STOP
